/*--------------------------------*- C++ -*----------------------------------*\
| =========                 |                                                 |
| \\      /  F ield         | OpenFOAM: The Open Source CFD Toolbox           |
|  \\    /   O peration     | Version:  5.0                                   |
|   \\  /    A nd           | Web:      www.OpenFOAM.org                      |
|    \\/     M anipulation  |                                                 |
\*---------------------------------------------------------------------------*/
FoamFile
{
    version     2.0;
    format      ascii;
    class       volScalarField;
    location    "0.25";
    object      p_rgh;
}
// * * * * * * * * * * * * * * * * * * * * * * * * * * * * * * * * * * * * * //

dimensions      [1 -1 -2 0 0 0 0];

internalField   nonuniform List<scalar> 
1915
(
-1.04247
-1.0869
-1.12976
-1.17033
-1.20782
-1.24144
-1.27043
-1.29414
-1.31204
-1.32374
-1.32899
-1.32751
-1.3191
-1.30358
-1.28088
-1.2509
-1.21351
-1.16852
-1.11565
-1.05464
-0.985166
-0.906926
-0.819527
-0.722655
-0.616443
-0.493068
-0.500941
-0.507007
-0.515698
-0.52632
-0.5391
-0.554193
-0.571707
-0.591708
-0.614185
-0.639101
-0.666461
-0.696331
-0.728757
-0.763632
-0.800672
-0.839499
-0.879688
-0.920682
-0.961768
-1.00223
-1.04148
-1.079
-1.11413
-1.14617
-1.17441
-1.19819
-1.21697
-1.23031
-1.23796
-1.23971
-1.23536
-1.22467
-1.20746
-1.18364
-1.15319
-1.11608
-1.07215
-1.02121
-0.963081
-0.897602
-0.824683
-0.744298
-0.656494
-0.561542
-0.490149
-0.497079
-0.504869
-0.514599
-0.52589
-0.538852
-0.553611
-0.57029
-0.588983
-0.609754
-0.632648
-0.657724
-0.685039
-0.714589
-0.74625
-0.779768
-0.81479
-0.850889
-0.887533
-0.924072
-0.959856
-0.994332
-1.02696
-1.05716
-1.0843
-1.10778
-1.12703
-1.14156
-1.15106
-1.15531
-1.15416
-1.14747
-1.13504
-1.1167
-1.09236
-1.06201
-1.02565
-0.983209
-0.934588
-0.8797
-0.818514
-0.751052
-0.677432
-0.597922
-0.513076
-0.483003
-0.49001
-0.499184
-0.510007
-0.521936
-0.53506
-0.549517
-0.565448
-0.582984
-0.602233
-0.623293
-0.646243
-0.671114
-0.697865
-0.726373
-0.756421
-0.787702
-0.819815
-0.852266
-0.884485
-0.915896
-0.945956
-0.974127
-0.999873
-1.02265
-1.04193
-1.05723
-1.06814
-1.07439
-1.07582
-1.07231
-1.06378
-1.05009
-1.03109
-1.0067
-0.976906
-0.94172
-0.901137
-0.855125
-0.803677
-0.746842
-0.684725
-0.617504
-0.545565
-0.469665
-0.472359
-0.479956
-0.490332
-0.502149
-0.514628
-0.527863
-0.542039
-0.557327
-0.573874
-0.591793
-0.611182
-0.632118
-0.654625
-0.678666
-0.704135
-0.730855
-0.758562
-0.786894
-0.815404
-0.843588
-0.870926
-0.896899
-0.921
-0.942734
-0.96162
-0.977204
-0.98908
-0.996916
-1.00048
-0.99962
-0.994274
-0.984379
-0.969856
-0.950606
-0.926543
-0.897648
-0.863949
-0.825483
-0.782273
-0.734361
-0.681842
-0.624876
-0.563693
-0.498715
-0.430772
-0.458906
-0.467207
-0.478624
-0.491263
-0.504164
-0.517461
-0.531392
-0.54615
-0.561861
-0.578612
-0.596475
-0.61552
-0.635786
-0.657264
-0.679881
-0.703496
-0.727874
-0.752688
-0.777534
-0.801962
-0.825502
-0.847685
-0.868052
-0.886158
-0.901579
-0.913927
-0.922866
-0.928123
-0.9295
-0.926877
-0.920189
-0.909395
-0.894448
-0.875286
-0.851847
-0.824111
-0.792112
-0.755915
-0.715592
-0.671228
-0.622945
-0.570935
-0.515461
-0.456944
-0.396144
-0.443281
-0.452195
-0.464445
-0.477714
-0.490925
-0.504263
-0.518
-0.532314
-0.547295
-0.562992
-0.579455
-0.596754
-0.614952
-0.634072
-0.654078
-0.67485
-0.696174
-0.717748
-0.739201
-0.760131
-0.780127
-0.798788
-0.815724
-0.830554
-0.84291
-0.852458
-0.858916
-0.862052
-0.861702
-0.857756
-0.850157
-0.838866
-0.82385
-0.805071
-0.78249
-0.756098
-0.725937
-0.69209
-0.654667
-0.613788
-0.569607
-0.522331
-0.472243
-0.419732
-0.365392
-0.426035
-0.43539
-0.448257
-0.46199
-0.475434
-0.488808
-0.502382
-0.516292
-0.530589
-0.5453
-0.560467
-0.576169
-0.59249
-0.609482
-0.627129
-0.645327
-0.663874
-0.682483
-0.700817
-0.718518
-0.735242
-0.750664
-0.764477
-0.776375
-0.786051
-0.793214
-0.797614
-0.799044
-0.797357
-0.792451
-0.784273
-0.772784
-0.757959
-0.739776
-0.718218
-0.693291
-0.665044
-0.633575
-0.599012
-0.561506
-0.521232
-0.478413
-0.433337
-0.386343
-0.337827
-0.407648
-0.417271
-0.430554
-0.444607
-0.45821
-0.471583
-0.484964
-0.498446
-0.512056
-0.525817
-0.539782
-0.554038
-0.56868
-0.583771
-0.599307
-0.615192
-0.631235
-0.647172
-0.662694
-0.677487
-0.691269
-0.703788
-0.714818
-0.724134
-0.731492
-0.736643
-0.739358
-0.739439
-0.736738
-0.731157
-0.722642
-0.71116
-0.696692
-0.679233
-0.658787
-0.635377
-0.609061
-0.579939
-0.548149
-0.513852
-0.477237
-0.43853
-0.39801
-0.355959
-0.31261
-0.388597
-0.398341
-0.411849
-0.426058
-0.439695
-0.452955
-0.466039
-0.479016
-0.491911
-0.504758
-0.517621
-0.530588
-0.543751
-0.557166
-0.570832
-0.584663
-0.598487
-0.612066
-0.625125
-0.637389
-0.648621
-0.658628
-0.66725
-0.674333
-0.679699
-0.683151
-0.684477
-0.683488
-0.680032
-0.674001
-0.665338
-0.654012
-0.640013
-0.623352
-0.604055
-0.58216
-0.557734
-0.530874
-0.501713
-0.47041
-0.43715
-0.402145
-0.365649
-0.327897
-0.289022
-0.369367
-0.379106
-0.392642
-0.406809
-0.420292
-0.433261
-0.445902
-0.458283
-0.470441
-0.482424
-0.494299
-0.506139
-0.518017
-0.529973
-0.542001
-0.554029
-0.565914
-0.577455
-0.588412
-0.598546
-0.607648
-0.615557
-0.622156
-0.627348
-0.631014
-0.633012
-0.633168
-0.631308
-0.627281
-0.62097
-0.61231
-0.601267
-0.587834
-0.57203
-0.553898
-0.533491
-0.510876
-0.486148
-0.459427
-0.430857
-0.400604
-0.368856
-0.33583
-0.301724
-0.266656
-0.350398
-0.360009
-0.373374
-0.387283
-0.400407
-0.412903
-0.424966
-0.436682
-0.448106
-0.459291
-0.470292
-0.481157
-0.491923
-0.502609
-0.513202
-0.523651
-0.533847
-0.543634
-0.552815
-0.561182
-0.568543
-0.574751
-0.579705
-0.583338
-0.585578
-0.586335
-0.585484
-0.582888
-0.57841
-0.571934
-0.563384
-0.552721
-0.539933
-0.525038
-0.508081
-0.489119
-0.468221
-0.445472
-0.420978
-0.394861
-0.367265
-0.338349
-0.308289
-0.277269
-0.245444
-0.331999
-0.341361
-0.354366
-0.367825
-0.38042
-0.392316
-0.403721
-0.414748
-0.425463
-0.435915
-0.446135
-0.456137
-0.465921
-0.475482
-0.484806
-0.493856
-0.502564
-0.510824
-0.518486
-0.525377
-0.531322
-0.536175
-0.539834
-0.542234
-0.543326
-0.54306
-0.541364
-0.538143
-0.533293
-0.526715
-0.518331
-0.508099
-0.495994
-0.482027
-0.466231
-0.448658
-0.429371
-0.408445
-0.38597
-0.36205
-0.336806
-0.31037
-0.28289
-0.254546
-0.225556
-0.314336
-0.323331
-0.335813
-0.348675
-0.360639
-0.371872
-0.382599
-0.392946
-0.40298
-0.412741
-0.422232
-0.431436
-0.440323
-0.448867
-0.457047
-0.464844
-0.472227
-0.479137
-0.485475
-0.491109
-0.495888
-0.499667
-0.502333
-0.503805
-0.504037
-0.502995
-0.500645
-0.496931
-0.491792
-0.485154
-0.476954
-0.46715
-0.455715
-0.442643
-0.427956
-0.411691
-0.393901
-0.374649
-0.354012
-0.332079
-0.308954
-0.28475
-0.259593
-0.233665
-0.207243
-0.297478
-0.306007
-0.317833
-0.329996
-0.341278
-0.351832
-0.361887
-0.371564
-0.380929
-0.390007
-0.398783
-0.407217
-0.41526
-0.422869
-0.430019
-0.4367
-0.442909
-0.448627
-0.453804
-0.45835
-0.462148
-0.465062
-0.466972
-0.46778
-0.467421
-0.465861
-0.463076
-0.459039
-0.453721
-0.44708
-0.439077
-0.42968
-0.418864
-0.406619
-0.392954
-0.377894
-0.361481
-0.343767
-0.324818
-0.304712
-0.283541
-0.261404
-0.238415
-0.214751
-0.190714
-0.281473
-0.289462
-0.300537
-0.311932
-0.322499
-0.332369
-0.34175
-0.350751
-0.359433
-0.36781
-0.37586
-0.383533
-0.390772
-0.397524
-0.403761
-0.409475
-0.414674
-0.419366
-0.423538
-0.427143
-0.430099
-0.432293
-0.43361
-0.433941
-0.433203
-0.431344
-0.428335
-0.424157
-0.418798
-0.412241
-0.404471
-0.395471
-0.385228
-0.373737
-0.361001
-0.347041
-0.33189
-0.315593
-0.298209
-0.279806
-0.260468
-0.240284
-0.219357
-0.197848
-0.176043
-0.266373
-0.273783
-0.28405
-0.294635
-0.30446
-0.313628
-0.322316
-0.330616
-0.338583
-0.346229
-0.353534
-0.360453
-0.366929
-0.372909
-0.378358
-0.38326
-0.387626
-0.39147
-0.3948
-0.397603
-0.39983
-0.401401
-0.402216
-0.402172
-0.401176
-0.399159
-0.396079
-0.391909
-0.386639
-0.380266
-0.372789
-0.364207
-0.354521
-0.343736
-0.33186
-0.318916
-0.304933
-0.289954
-0.27403
-0.257226
-0.239617
-0.221285
-0.202322
-0.182863
-0.163131
-0.252221
-0.259047
-0.268491
-0.278244
-0.287308
-0.295751
-0.303717
-0.311287
-0.318508
-0.325399
-0.331951
-0.33813
-0.343888
-0.349176
-0.353951
-0.358191
-0.36189
-0.365059
-0.36771
-0.369846
-0.371447
-0.372462
-0.372818
-0.372432
-0.371213
-0.369089
-0.366005
-0.361925
-0.356831
-0.350721
-0.343598
-0.335473
-0.326357
-0.316266
-0.305216
-0.293233
-0.280351
-0.26661
-0.252059
-0.236758
-0.220776
-0.204187
-0.187076
-0.169542
-0.151717
-0.239012
-0.245273
-0.253911
-0.262836
-0.271131
-0.278836
-0.286066
-0.292892
-0.299359
-0.305493
-0.311299
-0.31676
-0.321842
-0.326501
-0.330693
-0.334383
-0.337552
-0.340193
-0.342309
-0.343905
-0.344977
-0.345497
-0.345422
-0.344691
-0.343237
-0.340991
-0.3379
-0.33392
-0.329029
-0.323216
-0.316486
-0.308849
-0.300324
-0.29093
-0.280692
-0.269641
-0.257811
-0.245243
-0.231986
-0.218095
-0.203631
-0.188664
-0.173272
-0.157515
-0.141426
-0.226672
-0.2324
-0.240267
-0.248389
-0.255928
-0.262904
-0.269411
-0.275509
-0.281242
-0.286643
-0.291731
-0.296504
-0.300943
-0.305015
-0.308677
-0.311886
-0.314609
-0.316823
-0.318514
-0.319679
-0.320315
-0.32041
-0.319941
-0.318875
-0.317167
-0.314768
-0.311634
-0.307725
-0.303017
-0.297494
-0.291157
-0.284015
-0.276083
-0.267384
-0.257944
-0.247795
-0.236972
-0.225516
-0.213472
-0.20089
-0.187827
-0.174348
-0.160519
-0.146371
-0.131849
-0.215074
-0.220304
-0.227444
-0.234799
-0.241614
-0.247895
-0.253718
-0.259132
-0.264179
-0.268895
-0.273308
-0.277428
-0.281253
-0.284758
-0.287908
-0.290661
-0.292975
-0.294814
-0.296148
-0.296961
-0.297246
-0.296993
-0.296192
-0.29483
-0.292882
-0.290323
-0.287123
-0.283254
-0.278695
-0.273433
-0.267464
-0.260793
-0.253433
-0.245404
-0.236729
-0.227439
-0.217565
-0.207146
-0.196221
-0.184837
-0.173045
-0.160901
-0.148466
-0.135743
-0.12262
-0.204081
-0.208847
-0.215306
-0.221938
-0.228071
-0.233706
-0.238902
-0.243695
-0.24812
-0.252213
-0.256004
-0.259514
-0.262748
-0.265695
-0.268333
-0.270624
-0.272528
-0.274002
-0.275008
-0.275519
-0.275518
-0.274993
-0.273938
-0.272348
-0.270215
-0.267529
-0.264277
-0.260444
-0.256018
-0.250989
-0.245355
-0.239119
-0.23229
-0.224883
-0.216919
-0.208421
-0.199418
-0.189941
-0.180027
-0.169715
-0.159049
-0.148078
-0.136853
-0.125364
-0.113471
-0.193583
-0.197919
-0.203744
-0.209702
-0.215205
-0.220251
-0.224881
-0.22912
-0.232993
-0.236529
-0.239756
-0.242698
-0.245367
-0.247767
-0.249887
-0.2517
-0.253173
-0.254269
-0.254947
-0.255177
-0.254932
-0.254196
-0.25296
-0.251221
-0.248978
-0.24623
-0.242973
-0.239205
-0.234921
-0.230118
-0.224796
-0.218959
-0.212613
-0.20577
-0.198446
-0.190659
-0.182432
-0.17379
-0.164764
-0.155387
-0.145695
-0.135728
-0.125531
-0.115087
-0.10426
-0.183516
-0.187461
-0.192707
-0.198048
-0.202977
-0.207489
-0.211614
-0.215361
-0.218744
-0.221784
-0.224502
-0.226921
-0.229059
-0.23093
-0.232533
-0.233858
-0.234882
-0.23558
-0.235917
-0.235864
-0.235392
-0.234481
-0.233118
-0.231296
-0.229013
-0.22627
-0.223068
-0.219409
-0.215294
-0.210727
-0.205708
-0.200243
-0.194338
-0.188001
-0.181244
-0.174081
-0.166531
-0.158613
-0.150352
-0.141775
-0.132909
-0.123789
-0.114449
-0.104877
-0.0949646
-0.173857
-0.177454
-0.182183
-0.186972
-0.191387
-0.195421
-0.199092
-0.2024
-0.205347
-0.207942
-0.210201
-0.212144
-0.213792
-0.215163
-0.216269
-0.217111
-0.217683
-0.217971
-0.217954
-0.217607
-0.216907
-0.215831
-0.214363
-0.212493
-0.210214
-0.207524
-0.204422
-0.200911
-0.196994
-0.192675
-0.187957
-0.182846
-0.177345
-0.171463
-0.165208
-0.158592
-0.151628
-0.144334
-0.136727
-0.128829
-0.120663
-0.112254
-0.10363
-0.0947885
-0.085665
-0.164598
-0.167893
-0.172172
-0.176479
-0.180438
-0.184045
-0.18731
-0.190222
-0.192775
-0.194969
-0.196816
-0.198331
-0.199534
-0.200449
-0.201093
-0.201479
-0.201616
-0.201501
-0.201127
-0.200479
-0.199539
-0.19829
-0.196716
-0.194801
-0.192536
-0.189914
-0.186929
-0.183583
-0.179875
-0.175808
-0.171385
-0.166608
-0.161482
-0.156012
-0.150206
-0.144072
-0.137623
-0.130871
-0.12383
-0.116518
-0.108953
-0.101155
-0.093145
-0.0849343
-0.0765075
-0.155715
-0.15875
-0.162644
-0.166536
-0.170096
-0.173324
-0.176223
-0.178777
-0.180972
-0.182804
-0.184282
-0.185416
-0.186226
-0.186735
-0.186968
-0.186945
-0.186683
-0.186192
-0.185476
-0.18453
-0.183347
-0.181913
-0.180216
-0.178241
-0.175975
-0.173406
-0.170528
-0.167336
-0.163827
-0.159998
-0.155851
-0.151385
-0.146603
-0.14151
-0.13611
-0.130412
-0.124423
-0.118155
-0.111619
-0.10483
-0.0978019
-0.0905511
-0.0830934
-0.075454
-0.0676655
-0.147153
-0.149964
-0.153528
-0.157063
-0.160276
-0.163167
-0.165735
-0.167961
-0.16983
-0.171336
-0.172484
-0.173284
-0.173753
-0.173915
-0.173797
-0.173423
-0.172817
-0.171995
-0.170971
-0.16975
-0.168332
-0.166711
-0.164878
-0.162821
-0.160528
-0.157986
-0.155187
-0.15212
-0.148781
-0.145162
-0.141262
-0.137078
-0.13261
-0.127861
-0.122834
-0.117534
-0.111969
-0.106147
-0.100078
-0.0937747
-0.0872492
-0.0805139
-0.073582
-0.0664898
-0.0593086
-0.138826
-0.14144
-0.144714
-0.147938
-0.150845
-0.153433
-0.155698
-0.157624
-0.159195
-0.160407
-0.161262
-0.161772
-0.161952
-0.161826
-0.16142
-0.160762
-0.159874
-0.158781
-0.157501
-0.156044
-0.154419
-0.152625
-0.150658
-0.148509
-0.146171
-0.143631
-0.140879
-0.137906
-0.134702
-0.13126
-0.127574
-0.12364
-0.119456
-0.115022
-0.110339
-0.105412
-0.100245
-0.0948459
-0.0892235
-0.083388
-0.0773502
-0.0711205
-0.0647103
-0.0581636
-0.0515786
-0.130635
-0.133069
-0.13608
-0.139023
-0.141652
-0.14396
-0.145945
-0.147593
-0.148891
-0.149836
-0.150433
-0.150693
-0.150633
-0.150275
-0.149644
-0.148767
-0.147667
-0.146369
-0.144894
-0.143257
-0.141468
-0.139533
-0.137452
-0.135221
-0.132836
-0.130287
-0.127566
-0.124663
-0.121569
-0.118276
-0.114776
-0.111064
-0.107137
-0.102993
-0.0986321
-0.0940562
-0.08927
-0.0842793
-0.079092
-0.0737164
-0.0681619
-0.0624379
-0.0565549
-0.0505606
-0.0445682
-0.122487
-0.124752
-0.127515
-0.130194
-0.132559
-0.134602
-0.136324
-0.13771
-0.138754
-0.139457
-0.139825
-0.139872
-0.139615
-0.139076
-0.138277
-0.137242
-0.135995
-0.13456
-0.132956
-0.1312
-0.129303
-0.127274
-0.125117
-0.122833
-0.120419
-0.117871
-0.115181
-0.112343
-0.109347
-0.106187
-0.102856
-0.0993483
-0.0956598
-0.0917879
-0.0877317
-0.0834926
-0.079074
-0.0744814
-0.069721
-0.0648
-0.0597267
-0.0545093
-0.0491577
-0.0437197
-0.0383116
-0.114317
-0.116417
-0.118941
-0.121363
-0.123471
-0.125259
-0.126725
-0.127862
-0.128668
-0.129148
-0.129312
-0.129176
-0.128759
-0.128081
-0.127162
-0.126024
-0.12469
-0.123179
-0.121509
-0.119695
-0.117749
-0.115682
-0.113499
-0.111203
-0.108795
-0.106274
-0.103634
-0.100872
-0.0979808
-0.0949549
-0.0917888
-0.0884782
-0.0850192
-0.0814093
-0.0776474
-0.0737345
-0.0696738
-0.0654699
-0.061128
-0.0566547
-0.0520569
-0.0473423
-0.0425197
-0.0376331
-0.0327915
-0.10609
-0.10803
-0.110319
-0.112489
-0.114346
-0.115883
-0.1171
-0.117996
-0.118574
-0.118846
-0.118826
-0.118533
-0.117985
-0.117202
-0.116202
-0.115007
-0.113633
-0.112098
-0.110417
-0.108601
-0.106664
-0.104613
-0.102456
-0.100197
-0.0978377
-0.0953796
-0.0928212
-0.0901597
-0.0873917
-0.0845133
-0.0815212
-0.078412
-0.0751831
-0.0718327
-0.0683602
-0.0647669
-0.0610557
-0.0572309
-0.0532974
-0.0492611
-0.0451282
-0.0409056
-0.0366014
-0.0322529
-0.0279536
-0.0978041
-0.0995898
-0.101652
-0.103579
-0.105191
-0.106481
-0.107453
-0.108113
-0.108473
-0.108549
-0.10836
-0.107928
-0.107273
-0.106412
-0.105364
-0.104145
-0.102771
-0.101253
-0.0996036
-0.0978331
-0.0959509
-0.0939647
-0.0918807
-0.0897033
-0.0874361
-0.0850812
-0.0826392
-0.0801096
-0.0774909
-0.0747814
-0.0719793
-0.0690831
-0.0660913
-0.0630033
-0.0598194
-0.0565413
-0.0531721
-0.049716
-0.0461782
-0.0425642
-0.0388805
-0.0351335
-0.0313301
-0.0275002
-0.0237176
-0.089486
-0.0911259
-0.0929782
-0.0946786
-0.096055
-0.0971018
-0.0978315
-0.0982597
-0.0984066
-0.0982956
-0.0979512
-0.0973969
-0.0966531
-0.0957372
-0.0946647
-0.0934492
-0.0921016
-0.0906312
-0.0890463
-0.0873549
-0.0855638
-0.083679
-0.0817053
-0.0796472
-0.0775084
-0.0752919
-0.0729996
-0.0706321
-0.0681894
-0.0656715
-0.063078
-0.0604088
-0.0576637
-0.054843
-0.0519479
-0.0489809
-0.0459453
-0.0428459
-0.0396884
-0.0364795
-0.0332261
-0.0299344
-0.0266103
-0.0232758
-0.0199846
-0.0812056
-0.0827022
-0.0843694
-0.0858643
-0.0870144
-0.0878199
-0.0883065
-0.0885033
-0.0884413
-0.0881519
-0.0876642
-0.0870031
-0.0861883
-0.0852357
-0.0841579
-0.0829647
-0.0816634
-0.0802602
-0.0787608
-0.0771704
-0.0754936
-0.0737343
-0.0718965
-0.0699839
-0.0680004
-0.0659491
-0.0638321
-0.0616508
-0.0594061
-0.0570991
-0.0547303
-0.0523003
-0.04981
-0.0472603
-0.0446532
-0.0419915
-0.0392793
-0.0365221
-0.0337272
-0.0309035
-0.0280595
-0.0252019
-0.0223351
-0.0194727
-0.0166492
-0.0730382
-0.0743969
-0.0759086
-0.0772218
-0.0781507
-0.0787091
-0.0789462
-0.0789095
-0.0786432
-0.0781862
-0.0775701
-0.0768192
-0.0759512
-0.0749789
-0.0739112
-0.0727539
-0.0715114
-0.0701872
-0.0687845
-0.0673064
-0.0657555
-0.0641344
-0.0624461
-0.060694
-0.0588815
-0.0570113
-0.0550856
-0.0531059
-0.0510737
-0.0489903
-0.0468566
-0.0446737
-0.0424424
-0.0401642
-0.0378409
-0.0354757
-0.0330729
-0.0306393
-0.0281848
-0.0257226
-0.0232663
-0.0208237
-0.0183958
-0.0159873
-0.0136145
-0.0648956
-0.0662714
-0.0676848
-0.0688395
-0.0695373
-0.0698275
-0.0697995
-0.069526
-0.0690634
-0.0684547
-0.0677304
-0.0669109
-0.0660094
-0.0650343
-0.06399
-0.0628789
-0.0617024
-0.0604622
-0.0591598
-0.0577967
-0.0563742
-0.0548942
-0.0533592
-0.0517721
-0.0501357
-0.0484525
-0.0467243
-0.0449527
-0.0431393
-0.0412851
-0.039391
-0.0374576
-0.0354853
-0.0334748
-0.0314273
-0.029345
-0.0272319
-0.0250956
-0.02295
-0.020818
-0.0187261
-0.0166847
-0.0146868
-0.0127246
-0.0107976
-0.056459
-0.0584302
-0.0598643
-0.0608457
-0.0612499
-0.0612132
-0.0608876
-0.0603726
-0.0597288
-0.0589937
-0.0581893
-0.0573278
-0.0564153
-0.0554542
-0.0544447
-0.0533864
-0.052279
-0.0511229
-0.0499186
-0.0486667
-0.0473683
-0.046025
-0.0446392
-0.0432134
-0.0417501
-0.0402516
-0.0387196
-0.0371557
-0.0355609
-0.033936
-0.0322811
-0.0305958
-0.028879
-0.0271297
-0.0253465
-0.0235286
-0.0216773
-0.019799
-0.0179131
-0.0160625
-0.0143074
-0.0126661
-0.0111068
-0.0095999
-0.00812799
-0.0480378
-0.0511917
-0.052695
-0.0533442
-0.0532933
-0.0528325
-0.0521773
-0.0514329
-0.0506421
-0.0498211
-0.0489745
-0.0481018
-0.0472009
-0.0462686
-0.0453021
-0.0442993
-0.0432596
-0.0421829
-0.0410696
-0.0399207
-0.0387373
-0.0375214
-0.0362755
-0.0350023
-0.0337043
-0.0323837
-0.0310422
-0.0296812
-0.0283016
-0.0269032
-0.0254853
-0.0240459
-0.0225816
-0.0210879
-0.0195583
-0.0179857
-0.0163638
-0.0146912
-0.0129873
-0.01133
-0.0098739
-0.00866288
-0.00758095
-0.00655819
-0.00556177
-0.0417277
-0.0457484
-0.0469279
-0.0463777
-0.0454422
-0.044493
-0.0435731
-0.0426883
-0.0418336
-0.0409938
-0.0401539
-0.0393025
-0.038432
-0.0375373
-0.0366153
-0.0356646
-0.0346853
-0.0336783
-0.0326448
-0.0315863
-0.0305051
-0.0294038
-0.0282854
-0.0271528
-0.0260088
-0.0248559
-0.0236962
-0.0225309
-0.0213608
-0.0201855
-0.0190035
-0.0178114
-0.0166036
-0.0153708
-0.0140995
-0.0127724
-0.0113668
-0.00984356
-0.00815653
-0.00642163
-0.00519508
-0.00453136
-0.00404091
-0.00356758
-0.00308082
-0.035191
-0.0476003
-0.0467183
-0.041008
-0.0377714
-0.0362201
-0.0351757
-0.0342831
-0.0334609
-0.0326656
-0.0318689
-0.0310563
-0.0302214
-0.0293618
-0.0284772
-0.0275687
-0.0266382
-0.0256881
-0.024721
-0.0237396
-0.0227471
-0.0217471
-0.0207429
-0.0197382
-0.0187363
-0.0177401
-0.0167521
-0.0157744
-0.0148081
-0.0138538
-0.0129105
-0.0119753
-0.0110418
-0.0100975
-0.00911998
-0.00807506
-0.00689789
-0.00539886
-0.0031495
-0.000121688
0.00101901
0.000619358
7.55244e-05
-0.000238489
-0.000404509
0.000938296
-0.0658863
-0.053689
-0.036999
-0.0307183
-0.0282454
-0.0267465
-0.025621
-0.0246845
-0.0238294
-0.0229989
-0.0221676
-0.0213252
-0.0204684
-0.0195972
-0.0187134
-0.0178197
-0.016919
-0.0160148
-0.0151105
-0.01421
-0.0133173
-0.0124362
-0.0115708
-0.0107246
-0.0099012
-0.00910347
-0.00833388
-0.00759412
-0.00688466
-0.00620406
-0.00554734
-0.00490288
-0.00424649
-0.00353118
-0.00267306
-0.00151621
0.000341596
0.00397677
0.0103032
0.0114047
0.00764169
0.00506316
0.00357767
0.00255006
)
;

boundaryField
{
    leftWall
    {
        type            fixedFluxPressure;
        gradient        uniform 0;
        value           nonuniform List<scalar> 
42
(
-0.493068
-0.490149
-0.483003
-0.472359
-0.458906
-0.443281
-0.426035
-0.407648
-0.388597
-0.369367
-0.350398
-0.331999
-0.314336
-0.297478
-0.281473
-0.266373
-0.252221
-0.239012
-0.226672
-0.215074
-0.204081
-0.193583
-0.183516
-0.173857
-0.164598
-0.155715
-0.147153
-0.138826
-0.130635
-0.122487
-0.114317
-0.10609
-0.0978041
-0.089486
-0.0812056
-0.0730382
-0.0648956
-0.056459
-0.0480378
-0.0417277
-0.035191
0.000938296
)
;
    }
    rightWall
    {
        type            fixedFluxPressure;
        gradient        nonuniform 0();
        value           nonuniform 0();
    }
    lowerWall
    {
        type            fixedFluxPressure;
        gradient        nonuniform 0();
        value           nonuniform 0();
    }
    atmosphere
    {
        type            totalPressure;
        rho             rho;
        psi             none;
        gamma           1;
        p0              uniform 0;
        value           nonuniform List<scalar> 
45
(
-0.00427181
-0.0265687
-0.0263857
-0.0248967
-0.0236102
-0.0224776
-0.0214571
-0.0205112
-0.0196096
-0.0187309
-0.0178617
-0.016994
-0.016124
-0.0152503
-0.0143731
-0.0134941
-0.0126153
-0.0117394
-0.0108698
-0.0100099
-0.00916346
-0.00833434
-0.00752652
-0.00674395
-0.00599048
-0.0052698
-0.00458538
-0.0039404
-0.00333767
-0.0027797
-0.0022686
-0.00180614
-0.0013938
-0.00103284
-0.000724487
-0.000470127
-0.000271381
-0.000129687
-4.44902e-05
-8.56409e-06
0
0
0
0
0
)
;
    }
    defaultFaces
    {
        type            empty;
    }
    procBoundary2to0
    {
        type            processor;
        value           nonuniform List<scalar> 
46
(
-1.08012
-1.13011
-1.17877
-1.22531
-1.26882
-1.30844
-1.34336
-1.37282
-1.3961
-1.41263
-1.42205
-1.42406
-1.41853
-1.40536
-1.38442
-1.35553
-1.31844
-1.27292
-1.2187
-1.15543
-1.08261
-0.999463
-0.905124
-0.798979
-0.680744
-0.492194
-0.500367
-0.505258
-0.512971
-0.522969
-0.53562
-0.551106
-0.569531
-0.590946
-0.615298
-0.642461
-0.672347
-0.704969
-0.740375
-0.778485
-0.819024
-0.861622
-0.905883
-0.951276
-0.997057
-0.997057
)
;
    }
    procBoundary2to3
    {
        type            processor;
        value           nonuniform List<scalar> 
43
(
-0.50151
-0.460139
-0.42367
-0.390715
-0.360795
-0.333892
-0.30986
-0.288203
-0.268183
-0.249122
-0.230676
-0.212896
-0.196073
-0.180549
-0.166567
-0.154193
-0.14332
-0.133704
-0.125013
-0.116881
-0.108969
-0.101024
-0.0929046
-0.0845915
-0.0761756
-0.0678243
-0.0597355
-0.0520933
-0.0450421
-0.038675
-0.0330286
-0.0280861
-0.0237889
-0.020054
-0.0167874
-0.013895
-0.0112911
-0.00890341
-0.00667271
-0.00456322
-0.00256398
-0.00047867
0.00176302
)
;
    }
}


// ************************************************************************* //
