/*--------------------------------*- C++ -*----------------------------------*\
| =========                 |                                                 |
| \\      /  F ield         | OpenFOAM: The Open Source CFD Toolbox           |
|  \\    /   O peration     | Version:  5.0                                   |
|   \\  /    A nd           | Web:      www.OpenFOAM.org                      |
|    \\/     M anipulation  |                                                 |
\*---------------------------------------------------------------------------*/
FoamFile
{
    version     2.0;
    format      ascii;
    class       volVectorField;
    location    "0.25";
    object      U;
}
// * * * * * * * * * * * * * * * * * * * * * * * * * * * * * * * * * * * * * //

dimensions      [0 1 -1 0 0 0 0];

internalField   nonuniform List<vector> 
1915
(
(-0.172595 -0.645123 0)
(-0.204094 -0.598366 0)
(-0.236842 -0.54429 0)
(-0.270155 -0.483162 0)
(-0.303229 -0.415589 0)
(-0.335185 -0.342515 0)
(-0.365119 -0.265204 0)
(-0.392181 -0.185165 0)
(-0.415642 -0.104051 0)
(-0.434945 -0.0235189 0)
(-0.449723 0.0548746 0)
(-0.459776 0.129655 0)
(-0.4651 0.199618 0)
(-0.465869 0.263919 0)
(-0.462397 0.322071 0)
(-0.455087 0.373902 0)
(-0.44439 0.4195 0)
(-0.430767 0.459155 0)
(-0.414651 0.493314 0)
(-0.396422 0.522534 0)
(-0.376362 0.547454 0)
(-0.354609 0.56876 0)
(-0.331117 0.587139 0)
(-0.305628 0.603214 0)
(-0.277726 0.617472 0)
(0.000900059 -0.842269 0)
(0.000334571 -0.854001 0)
(-0.00231025 -0.840542 0)
(-0.00253967 -0.82785 0)
(-0.00268725 -0.817474 0)
(-0.00311825 -0.809522 0)
(-0.00431723 -0.803766 0)
(-0.00669415 -0.799801 0)
(-0.0105669 -0.797108 0)
(-0.0161785 -0.795084 0)
(-0.0237158 -0.793067 0)
(-0.033322 -0.790349 0)
(-0.0451074 -0.786196 0)
(-0.0591561 -0.779853 0)
(-0.0755302 -0.770558 0)
(-0.0942702 -0.757554 0)
(-0.115385 -0.740105 0)
(-0.138825 -0.717513 0)
(-0.164465 -0.689157 0)
(-0.192087 -0.654528 0)
(-0.221367 -0.613276 0)
(-0.251863 -0.565254 0)
(-0.283002 -0.510566 0)
(-0.314095 -0.449599 0)
(-0.344384 -0.383043 0)
(-0.373065 -0.311874 0)
(-0.399346 -0.237322 0)
(-0.422506 -0.160803 0)
(-0.441946 -0.0838141 0)
(-0.457224 -0.0078322 0)
(-0.468071 0.0657644 0)
(-0.47437 0.135685 0)
(-0.476183 0.20091 0)
(-0.473727 0.260743 0)
(-0.467329 0.314803 0)
(-0.457384 0.362983 0)
(-0.444316 0.405395 0)
(-0.428547 0.442319 0)
(-0.410474 0.47415 0)
(-0.390433 0.501364 0)
(-0.368677 0.524485 0)
(-0.34535 0.544064 0)
(-0.32047 0.560624 0)
(-0.293912 0.574623 0)
(-0.265417 0.586363 0)
(-0.00340896 -0.839557 0)
(-0.00790616 -0.849649 0)
(-0.0134531 -0.837578 0)
(-0.0175426 -0.825539 0)
(-0.0213323 -0.81525 0)
(-0.0252018 -0.80687 0)
(-0.0295927 -0.800229 0)
(-0.0348983 -0.794996 0)
(-0.0414431 -0.790724 0)
(-0.0494895 -0.786878 0)
(-0.0592463 -0.782851 0)
(-0.0708732 -0.777981 0)
(-0.0844893 -0.771567 0)
(-0.100177 -0.762887 0)
(-0.117981 -0.751212 0)
(-0.137908 -0.735827 0)
(-0.159918 -0.716049 0)
(-0.183909 -0.691253 0)
(-0.209696 -0.660906 0)
(-0.237001 -0.624607 0)
(-0.265458 -0.582122 0)
(-0.294592 -0.533424 0)
(-0.323822 -0.47872 0)
(-0.352492 -0.418485 0)
(-0.379897 -0.353454 0)
(-0.405316 -0.284604 0)
(-0.428065 -0.213112 0)
(-0.447539 -0.140286 0)
(-0.463256 -0.0674803 0)
(-0.474881 0.0039976 0)
(-0.482226 0.0729282 0)
(-0.485252 0.138195 0)
(-0.484072 0.198937 0)
(-0.478928 0.254582 0)
(-0.470152 0.304835 0)
(-0.458128 0.349632 0)
(-0.443252 0.389097 0)
(-0.425912 0.423487 0)
(-0.406467 0.453152 0)
(-0.385225 0.478501 0)
(-0.362423 0.499969 0)
(-0.338216 0.517995 0)
(-0.312662 0.532989 0)
(-0.285736 0.5453 0)
(-0.257353 0.555172 0)
(-0.00620622 -0.831503 0)
(-0.0146007 -0.841488 0)
(-0.0233498 -0.830667 0)
(-0.0309443 -0.819359 0)
(-0.0381304 -0.809321 0)
(-0.0452367 -0.800726 0)
(-0.0526655 -0.79344 0)
(-0.0607869 -0.787186 0)
(-0.0699181 -0.781577 0)
(-0.0803235 -0.776137 0)
(-0.0922156 -0.770313 0)
(-0.105757 -0.763493 0)
(-0.121064 -0.755023 0)
(-0.138209 -0.744225 0)
(-0.157217 -0.730418 0)
(-0.178064 -0.71294 0)
(-0.200669 -0.691173 0)
(-0.224884 -0.664569 0)
(-0.250481 -0.632682 0)
(-0.277147 -0.59521 0)
(-0.304485 -0.552023 0)
(-0.332011 -0.503185 0)
(-0.359162 -0.448991 0)
(-0.385322 -0.389969 0)
(-0.409848 -0.32687 0)
(-0.432109 -0.260652 0)
(-0.451521 -0.192423 0)
(-0.467588 -0.123382 0)
(-0.47993 -0.0547437 0)
(-0.488303 0.0123359 0)
(-0.492595 0.0767844 0)
(-0.492827 0.137643 0)
(-0.489152 0.194185 0)
(-0.481828 0.245943 0)
(-0.471183 0.292681 0)
(-0.457581 0.334369 0)
(-0.441394 0.371129 0)
(-0.422977 0.403197 0)
(-0.402656 0.430879 0)
(-0.380716 0.454526 0)
(-0.357385 0.474505 0)
(-0.332826 0.491175 0)
(-0.307136 0.504867 0)
(-0.280358 0.515858 0)
(-0.252508 0.524353 0)
(-0.00828226 -0.819034 0)
(-0.0201276 -0.829554 0)
(-0.0319522 -0.819998 0)
(-0.0426993 -0.809534 0)
(-0.0529816 -0.799887 0)
(-0.0630638 -0.791248 0)
(-0.0733108 -0.783517 0)
(-0.0840649 -0.776459 0)
(-0.0956247 -0.769738 0)
(-0.108243 -0.762931 0)
(-0.122125 -0.755539 0)
(-0.137426 -0.747002 0)
(-0.15425 -0.736719 0)
(-0.172655 -0.724065 0)
(-0.192644 -0.708416 0)
(-0.214164 -0.689171 0)
(-0.2371 -0.665782 0)
(-0.26127 -0.637777 0)
(-0.286416 -0.6048 0)
(-0.312203 -0.566633 0)
(-0.338223 -0.523231 0)
(-0.364 -0.474737 0)
(-0.389 -0.421504 0)
(-0.412656 -0.364088 0)
(-0.434397 -0.303241 0)
(-0.453677 -0.239879 0)
(-0.470007 -0.175034 0)
(-0.482989 -0.109797 0)
(-0.492331 -0.0452524 0)
(-0.497868 0.0175828 0)
(-0.499551 0.0777695 0)
(-0.497449 0.134487 0)
(-0.491744 0.187123 0)
(-0.482698 0.235291 0)
(-0.470631 0.278805 0)
(-0.455887 0.317651 0)
(-0.438809 0.351948 0)
(-0.419725 0.381905 0)
(-0.398935 0.407793 0)
(-0.3767 0.429911 0)
(-0.35324 0.448573 0)
(-0.328727 0.46408 0)
(-0.303282 0.476708 0)
(-0.27699 0.486692 0)
(-0.249939 0.494214 0)
(-0.00993614 -0.802767 0)
(-0.0246923 -0.814209 0)
(-0.0392579 -0.805932 0)
(-0.0527907 -0.796374 0)
(-0.0658342 -0.787218 0)
(-0.078593 -0.778672 0)
(-0.0913918 -0.770661 0)
(-0.104541 -0.762988 0)
(-0.118316 -0.755362 0)
(-0.132948 -0.747408 0)
(-0.148629 -0.73868 0)
(-0.165496 -0.728673 0)
(-0.18364 -0.71684 0)
(-0.203096 -0.702616 0)
(-0.223846 -0.685438 0)
(-0.245812 -0.664771 0)
(-0.268851 -0.640136 0)
(-0.292757 -0.61114 0)
(-0.317253 -0.577502 0)
(-0.341996 -0.539084 0)
(-0.366582 -0.49591 0)
(-0.390551 -0.448181 0)
(-0.413411 -0.396285 0)
(-0.434649 -0.340793 0)
(-0.453765 -0.282436 0)
(-0.470295 -0.222079 0)
(-0.483838 -0.160672 0)
(-0.49408 -0.0992008 0)
(-0.500808 -0.0386296 0)
(-0.503921 0.0201488 0)
(-0.503421 0.0763155 0)
(-0.499414 0.129168 0)
(-0.492098 0.17819 0)
(-0.481736 0.223058 0)
(-0.468633 0.263622 0)
(-0.453112 0.299881 0)
(-0.435491 0.331941 0)
(-0.416073 0.35999 0)
(-0.395132 0.384264 0)
(-0.372914 0.405023 0)
(-0.349627 0.422536 0)
(-0.325447 0.437061 0)
(-0.30051 0.448838 0)
(-0.274928 0.45807 0)
(-0.248823 0.464928 0)
(-0.0112505 -0.783421 0)
(-0.0283983 -0.795834 0)
(-0.0453088 -0.788849 0)
(-0.061242 -0.78023 0)
(-0.0766898 -0.771634 0)
(-0.0917964 -0.763284 0)
(-0.106845 -0.755129 0)
(-0.122114 -0.747005 0)
(-0.137848 -0.738661 0)
(-0.154259 -0.72977 0)
(-0.171513 -0.719936 0)
(-0.189729 -0.708707 0)
(-0.208976 -0.695596 0)
(-0.229269 -0.680097 0)
(-0.250567 -0.661709 0)
(-0.272771 -0.639965 0)
(-0.295718 -0.614455 0)
(-0.319185 -0.584859 0)
(-0.342888 -0.550965 0)
(-0.366485 -0.5127 0)
(-0.389584 -0.470143 0)
(-0.411757 -0.423537 0)
(-0.432551 -0.37329 0)
(-0.451514 -0.319967 0)
(-0.468212 -0.264268 0)
(-0.482259 -0.207 0)
(-0.49333 -0.14903 0)
(-0.501187 -0.091244 0)
(-0.505682 -0.0344952 0)
(-0.506766 0.0204338 0)
(-0.50448 0.0728307 0)
(-0.498956 0.122092 0)
(-0.490401 0.167781 0)
(-0.479073 0.209623 0)
(-0.465262 0.247496 0)
(-0.449268 0.281401 0)
(-0.431388 0.311436 0)
(-0.411899 0.337765 0)
(-0.391056 0.360595 0)
(-0.369088 0.380152 0)
(-0.346196 0.39667 0)
(-0.322551 0.410377 0)
(-0.298299 0.421482 0)
(-0.273566 0.430168 0)
(-0.248484 0.436598 0)
(-0.0122575 -0.761524 0)
(-0.0313172 -0.774868 0)
(-0.0501604 -0.769149 0)
(-0.0681034 -0.761474 0)
(-0.0855866 -0.753478 0)
(-0.102694 -0.745398 0)
(-0.119668 -0.737207 0)
(-0.136755 -0.728772 0)
(-0.154171 -0.719881 0)
(-0.172099 -0.710249 0)
(-0.190679 -0.699529 0)
(-0.210009 -0.687325 0)
(-0.230133 -0.673203 0)
(-0.251047 -0.656719 0)
(-0.27269 -0.637436 0)
(-0.294944 -0.614951 0)
(-0.317633 -0.588921 0)
(-0.340526 -0.559089 0)
(-0.363338 -0.525308 0)
(-0.385737 -0.487554 0)
(-0.407353 -0.445951 0)
(-0.427789 -0.400765 0)
(-0.446639 -0.352412 0)
(-0.463507 -0.30144 0)
(-0.478025 -0.248509 0)
(-0.489872 -0.194362 0)
(-0.498794 -0.139787 0)
(-0.504615 -0.085574 0)
(-0.50724 -0.0324779 0)
(-0.506662 0.0188162 0)
(-0.502952 0.0676901 0)
(-0.496258 0.113624 0)
(-0.486789 0.156242 0)
(-0.474796 0.195312 0)
(-0.460553 0.230729 0)
(-0.444338 0.262495 0)
(-0.426426 0.290697 0)
(-0.407075 0.315478 0)
(-0.386522 0.337018 0)
(-0.36498 0.355517 0)
(-0.342639 0.37118 0)
(-0.319669 0.384208 0)
(-0.296218 0.394789 0)
(-0.272415 0.403092 0)
(-0.248393 0.409272 0)
(-0.0129741 -0.7376 0)
(-0.0335081 -0.751759 0)
(-0.0538802 -0.747243 0)
(-0.0734452 -0.740487 0)
(-0.0925908 -0.733103 0)
(-0.111344 -0.725342 0)
(-0.129911 -0.717201 0)
(-0.148504 -0.708575 0)
(-0.167309 -0.699289 0)
(-0.186479 -0.689098 0)
(-0.206128 -0.677703 0)
(-0.226327 -0.664758 0)
(-0.247102 -0.649885 0)
(-0.268426 -0.632697 0)
(-0.290221 -0.612818 0)
(-0.312357 -0.589908 0)
(-0.334651 -0.563686 0)
(-0.356867 -0.533951 0)
(-0.378728 -0.500607 0)
(-0.399917 -0.463676 0)
(-0.420088 -0.423307 0)
(-0.438883 -0.379782 0)
(-0.45594 -0.33351 0)
(-0.470916 -0.285013 0)
(-0.483502 -0.234908 0)
(-0.493437 -0.183872 0)
(-0.500525 -0.132616 0)
(-0.504641 -0.0818448 0)
(-0.505735 -0.0322231 0)
(-0.503831 0.0156488 0)
(-0.49902 0.0612347 0)
(-0.491462 0.104085 0)
(-0.481362 0.143874 0)
(-0.468962 0.1804 0)
(-0.454517 0.213574 0)
(-0.438289 0.243394 0)
(-0.420532 0.269936 0)
(-0.401485 0.293323 0)
(-0.381369 0.313712 0)
(-0.360384 0.331281 0)
(-0.33871 0.346209 0)
(-0.316511 0.358678 0)
(-0.293933 0.368858 0)
(-0.271107 0.376905 0)
(-0.248156 0.382966 0)
(-0.0134397 -0.712133 0)
(-0.0350398 -0.726956 0)
(-0.0565479 -0.723544 0)
(-0.0773548 -0.717658 0)
(-0.0977938 -0.710875 0)
(-0.117842 -0.703459 0)
(-0.137669 -0.695433 0)
(-0.157454 -0.68672 0)
(-0.177353 -0.677174 0)
(-0.197487 -0.666593 0)
(-0.217944 -0.654718 0)
(-0.238771 -0.641251 0)
(-0.259971 -0.62587 0)
(-0.281502 -0.60824 0)
(-0.303273 -0.588045 0)
(-0.325143 -0.565001 0)
(-0.346926 -0.53888 0)
(-0.36839 -0.509535 0)
(-0.389268 -0.47691 0)
(-0.409262 -0.441059 0)
(-0.428055 -0.402151 0)
(-0.445325 -0.36047 0)
(-0.460754 -0.316412 0)
(-0.474048 -0.270467 0)
(-0.484951 -0.223202 0)
(-0.493252 -0.175234 0)
(-0.498805 -0.1272 0)
(-0.501525 -0.0797262 0)
(-0.501397 -0.0333984 0)
(-0.498468 0.0112569 0)
(-0.492844 0.053775 0)
(-0.484688 0.0937642 0)
(-0.474201 0.130941 0)
(-0.461613 0.165129 0)
(-0.447163 0.196247 0)
(-0.431095 0.224292 0)
(-0.413645 0.249325 0)
(-0.395035 0.271454 0)
(-0.375472 0.290816 0)
(-0.355144 0.307566 0)
(-0.334222 0.321865 0)
(-0.31286 0.333875 0)
(-0.291202 0.343752 0)
(-0.269375 0.351641 0)
(-0.247496 0.357681 0)
(-0.0136969 -0.685575 0)
(-0.0359773 -0.700893 0)
(-0.0582468 -0.698468 0)
(-0.0799305 -0.69338 0)
(-0.101308 -0.687165 0)
(-0.122312 -0.680106 0)
(-0.143076 -0.672243 0)
(-0.163748 -0.663527 0)
(-0.18445 -0.653843 0)
(-0.205275 -0.643021 0)
(-0.226284 -0.630844 0)
(-0.247502 -0.617059 0)
(-0.268913 -0.60139 0)
(-0.290462 -0.583558 0)
(-0.312045 -0.563297 0)
(-0.333519 -0.540375 0)
(-0.354696 -0.514614 0)
(-0.375354 -0.485906 0)
(-0.395237 -0.454233 0)
(-0.414071 -0.419671 0)
(-0.431566 -0.382398 0)
(-0.447437 -0.342695 0)
(-0.461407 -0.300935 0)
(-0.473227 -0.257576 0)
(-0.482683 -0.213134 0)
(-0.489613 -0.168165 0)
(-0.493905 -0.123239 0)
(-0.495511 -0.0789111 0)
(-0.494438 -0.0356988 0)
(-0.490752 0.00593631 0)
(-0.484567 0.0455909 0)
(-0.476045 0.0829225 0)
(-0.465382 0.117682 0)
(-0.452793 0.149713 0)
(-0.438505 0.17894 0)
(-0.422742 0.205358 0)
(-0.405726 0.229017 0)
(-0.387663 0.250007 0)
(-0.368747 0.268448 0)
(-0.349154 0.284476 0)
(-0.329046 0.298235 0)
(-0.30857 0.309868 0)
(-0.287862 0.319519 0)
(-0.267046 0.327325 0)
(-0.246233 0.333411 0)
(-0.0137716 -0.658335 0)
(-0.0363703 -0.673978 0)
(-0.0590548 -0.67241 0)
(-0.0812753 -0.668032 0)
(-0.103259 -0.662342 0)
(-0.124901 -0.655633 0)
(-0.146297 -0.64797 0)
(-0.167563 -0.639322 0)
(-0.18879 -0.629602 0)
(-0.210043 -0.618672 0)
(-0.23136 -0.60635 0)
(-0.252744 -0.592426 0)
(-0.274166 -0.576669 0)
(-0.295556 -0.558846 0)
(-0.316807 -0.538739 0)
(-0.33777 -0.51616 0)
(-0.358265 -0.490975 0)
(-0.378077 -0.463111 0)
(-0.396969 -0.432576 0)
(-0.414687 -0.399462 0)
(-0.430973 -0.36395 0)
(-0.445572 -0.326311 0)
(-0.458248 -0.286895 0)
(-0.468788 -0.24612 0)
(-0.47702 -0.204454 0)
(-0.482815 -0.162397 0)
(-0.486095 -0.120456 0)
(-0.486835 -0.0791213 0)
(-0.485064 -0.0388507 0)
(-0.480855 -4.98796e-05 0)
(-0.474329 0.0369304 0)
(-0.465643 0.0717898 0)
(-0.454984 0.104308 0)
(-0.442557 0.134343 0)
(-0.428571 0.161826 0)
(-0.413238 0.186748 0)
(-0.396763 0.209147 0)
(-0.379339 0.229102 0)
(-0.361147 0.246713 0)
(-0.342352 0.2621 0)
(-0.323109 0.275391 0)
(-0.303555 0.286715 0)
(-0.28382 0.2962 0)
(-0.264022 0.303975 0)
(-0.244268 0.310156 0)
(-0.013672 -0.630788 0)
(-0.0362567 -0.646589 0)
(-0.0590464 -0.645737 0)
(-0.0814967 -0.64197 0)
(-0.103786 -0.636748 0)
(-0.125772 -0.630376 0)
(-0.147516 -0.622934 0)
(-0.169103 -0.614411 0)
(-0.190594 -0.604743 0)
(-0.212029 -0.593819 0)
(-0.233426 -0.581491 0)
(-0.25477 -0.567586 0)
(-0.276018 -0.551913 0)
(-0.297091 -0.534281 0)
(-0.317879 -0.514514 0)
(-0.338234 -0.492466 0)
(-0.357983 -0.468034 0)
(-0.376924 -0.441178 0)
(-0.394837 -0.411923 0)
(-0.411491 -0.380373 0)
(-0.426656 -0.346706 0)
(-0.440108 -0.311179 0)
(-0.451642 -0.274114 0)
(-0.461083 -0.235893 0)
(-0.468289 -0.196936 0)
(-0.473162 -0.157689 0)
(-0.475648 -0.118602 0)
(-0.475742 -0.0801083 0)
(-0.473484 -0.0426121 0)
(-0.468956 -0.00647037 0)
(-0.462278 0.0280101 0)
(-0.4536 0.0605659 0)
(-0.443102 0.0910002 0)
(-0.430974 0.119185 0)
(-0.417413 0.145054 0)
(-0.402616 0.168594 0)
(-0.386773 0.189836 0)
(-0.370066 0.208842 0)
(-0.352662 0.225701 0)
(-0.33472 0.240515 0)
(-0.316382 0.253398 0)
(-0.297781 0.264464 0)
(-0.279035 0.273829 0)
(-0.260258 0.281611 0)
(-0.241556 0.287918 0)
(-0.0134031 -0.603292 0)
(-0.0356794 -0.619073 0)
(-0.058303 -0.61878 0)
(-0.0807117 -0.615517 0)
(-0.103036 -0.6107 0)
(-0.125101 -0.604642 0)
(-0.146935 -0.597433 0)
(-0.168591 -0.58908 0)
(-0.190108 -0.579536 0)
(-0.211502 -0.568716 0)
(-0.232771 -0.556501 0)
(-0.253887 -0.542749 0)
(-0.274795 -0.527308 0)
(-0.295412 -0.510022 0)
(-0.315624 -0.490752 0)
(-0.33529 -0.469385 0)
(-0.354243 -0.445849 0)
(-0.372297 -0.420125 0)
(-0.389249 -0.392255 0)
(-0.404892 -0.362344 0)
(-0.419021 -0.330568 0)
(-0.431439 -0.297164 0)
(-0.441974 -0.262429 0)
(-0.450476 -0.226707 0)
(-0.456832 -0.190373 0)
(-0.460968 -0.153823 0)
(-0.462849 -0.117456 0)
(-0.462483 -0.0816528 0)
(-0.459921 -0.0467704 0)
(-0.455246 -0.0131234 0)
(-0.448575 0.0190183 0)
(-0.440054 0.0494243 0)
(-0.429848 0.0779177 0)
(-0.418138 0.104381 0)
(-0.405105 0.128751 0)
(-0.390934 0.151011 0)
(-0.375802 0.171182 0)
(-0.359877 0.189317 0)
(-0.343318 0.205488 0)
(-0.326271 0.219786 0)
(-0.308873 0.232308 0)
(-0.291247 0.243156 0)
(-0.273504 0.252436 0)
(-0.255751 0.260251 0)
(-0.238091 0.266703 0)
(-0.0129805 -0.576186 0)
(-0.0346989 -0.591748 0)
(-0.056922 -0.591844 0)
(-0.0790511 -0.588969 0)
(-0.101171 -0.58449 0)
(-0.123077 -0.578715 0)
(-0.144768 -0.571743 0)
(-0.166271 -0.563592 0)
(-0.187598 -0.554232 0)
(-0.20875 -0.543597 0)
(-0.229707 -0.531595 0)
(-0.250429 -0.518112 0)
(-0.270853 -0.503025 0)
(-0.290892 -0.486213 0)
(-0.310434 -0.467566 0)
(-0.329343 -0.447 0)
(-0.347462 -0.424467 0)
(-0.36462 -0.399966 0)
(-0.380634 -0.373547 0)
(-0.395317 -0.345318 0)
(-0.408488 -0.315445 0)
(-0.419977 -0.284149 0)
(-0.429636 -0.251697 0)
(-0.43734 -0.218397 0)
(-0.442999 -0.184586 0)
(-0.446556 -0.150611 0)
(-0.447993 -0.116824 0)
(-0.447327 -0.0835632 0)
(-0.444612 -0.05114 0)
(-0.439934 -0.019833 0)
(-0.433405 0.0101196 0)
(-0.425161 0.0385165 0)
(-0.415359 0.0651982 0)
(-0.404164 0.0900564 0)
(-0.391747 0.11303 0)
(-0.378277 0.134098 0)
(-0.36392 0.153276 0)
(-0.348833 0.170603 0)
(-0.333163 0.186142 0)
(-0.317049 0.199968 0)
(-0.300618 0.212167 0)
(-0.283985 0.222828 0)
(-0.267253 0.232045 0)
(-0.250524 0.23991 0)
(-0.233896 0.246516 0)
(-0.0124334 -0.54977 0)
(-0.0333924 -0.564898 0)
(-0.0550146 -0.565205 0)
(-0.0766575 -0.562601 0)
(-0.0983623 -0.558385 0)
(-0.1199 -0.552857 0)
(-0.141244 -0.546117 0)
(-0.162394 -0.538191 0)
(-0.183346 -0.529062 0)
(-0.204079 -0.51868 0)
(-0.224563 -0.506973 0)
(-0.244748 -0.493852 0)
(-0.264564 -0.479221 0)
(-0.283923 -0.462984 0)
(-0.302716 -0.445058 0)
(-0.320814 -0.425383 0)
(-0.338072 -0.403929 0)
(-0.354333 -0.380709 0)
(-0.369432 -0.355778 0)
(-0.383203 -0.329243 0)
(-0.395488 -0.301259 0)
(-0.40614 -0.272027 0)
(-0.415031 -0.24179 0)
(-0.422058 -0.210822 0)
(-0.427149 -0.179419 0)
(-0.430261 -0.14789 0)
(-0.431387 -0.116543 0)
(-0.430551 -0.0856754 0)
(-0.42781 -0.0555617 0)
(-0.423246 -0.0264473 0)
(-0.416968 0.00145691 0)
(-0.409101 0.0279748 0)
(-0.399791 0.052963 0)
(-0.389191 0.076321 0)
(-0.377459 0.0979895 0)
(-0.364752 0.117945 0)
(-0.351222 0.136195 0)
(-0.337016 0.152771 0)
(-0.322272 0.167722 0)
(-0.307117 0.181113 0)
(-0.291671 0.193017 0)
(-0.276042 0.203512 0)
(-0.260326 0.21268 0)
(-0.244617 0.220602 0)
(-0.229008 0.227361 0)
(-0.0117987 -0.524287 0)
(-0.0318419 -0.538766 0)
(-0.0526975 -0.539111 0)
(-0.0736784 -0.536656 0)
(-0.0947868 -0.532627 0)
(-0.115777 -0.527304 0)
(-0.136595 -0.520786 0)
(-0.157223 -0.513099 0)
(-0.177637 -0.504236 0)
(-0.197802 -0.49416 0)
(-0.217676 -0.482815 0)
(-0.237202 -0.470131 0)
(-0.256307 -0.456033 0)
(-0.274903 -0.440449 0)
(-0.292884 -0.423316 0)
(-0.31013 -0.404594 0)
(-0.326508 -0.384268 0)
(-0.341875 -0.362358 0)
(-0.356084 -0.338925 0)
(-0.36899 -0.31407 0)
(-0.380452 -0.287937 0)
(-0.390346 -0.260709 0)
(-0.398561 -0.232601 0)
(-0.405013 -0.203858 0)
(-0.409643 -0.174742 0)
(-0.41242 -0.145524 0)
(-0.413345 -0.116474 0)
(-0.412446 -0.0878532 0)
(-0.409779 -0.0599027 0)
(-0.405424 -0.0328393 0)
(-0.399482 -0.00684958 0)
(-0.39207 0.0179112 0)
(-0.383322 0.0413152 0)
(-0.373378 0.0632692 0)
(-0.362385 0.0837156 0)
(-0.350485 0.102629 0)
(-0.337821 0.120009 0)
(-0.324528 0.13588 0)
(-0.310732 0.15028 0)
(-0.296555 0.163264 0)
(-0.282105 0.174893 0)
(-0.267484 0.185235 0)
(-0.252783 0.19436 0)
(-0.238086 0.202337 0)
(-0.223481 0.209243 0)
(-0.0111127 -0.499914 0)
(-0.0301262 -0.513547 0)
(-0.0500842 -0.513766 0)
(-0.07026 -0.511347 0)
(-0.0906221 -0.507428 0)
(-0.110913 -0.502268 0)
(-0.131058 -0.495954 0)
(-0.151019 -0.488514 0)
(-0.170758 -0.479942 0)
(-0.190228 -0.470211 0)
(-0.209378 -0.459277 0)
(-0.228146 -0.447086 0)
(-0.246456 -0.43358 0)
(-0.264222 -0.418704 0)
(-0.281344 -0.402414 0)
(-0.29771 -0.384682 0)
(-0.313198 -0.365506 0)
(-0.32768 -0.344913 0)
(-0.341026 -0.322964 0)
(-0.353107 -0.299754 0)
(-0.363804 -0.275416 0)
(-0.373006 -0.250112 0)
(-0.380623 -0.224037 0)
(-0.386584 -0.197406 0)
(-0.390841 -0.170448 0)
(-0.393372 -0.143403 0)
(-0.394183 -0.116506 0)
(-0.393304 -0.0899868 0)
(-0.390789 -0.0640571 0)
(-0.386715 -0.038908 0)
(-0.381174 -0.0147048 0)
(-0.374275 0.00841463 0)
(-0.366139 0.0303373 0)
(-0.356895 0.0509766 0)
(-0.346677 0.070277 0)
(-0.335616 0.0882103 0)
(-0.323842 0.104772 0)
(-0.311479 0.119978 0)
(-0.298646 0.133859 0)
(-0.285452 0.146457 0)
(-0.272 0.157824 0)
(-0.258384 0.168017 0)
(-0.244689 0.177097 0)
(-0.230992 0.185123 0)
(-0.217372 0.192161 0)
(-0.0104087 -0.476764 0)
(-0.0283192 -0.489384 0)
(-0.0472842 -0.489334 0)
(-0.0665449 -0.486845 0)
(-0.0860424 -0.482965 0)
(-0.105511 -0.477925 0)
(-0.124861 -0.471797 0)
(-0.144037 -0.464603 0)
(-0.162989 -0.456338 0)
(-0.18166 -0.44698 0)
(-0.199994 -0.436492 0)
(-0.217923 -0.424834 0)
(-0.235373 -0.411959 0)
(-0.252259 -0.397827 0)
(-0.268488 -0.382406 0)
(-0.283955 -0.365682 0)
(-0.298551 -0.347659 0)
(-0.312161 -0.328368 0)
(-0.324671 -0.30787 0)
(-0.335968 -0.286253 0)
(-0.345949 -0.263637 0)
(-0.354519 -0.240169 0)
(-0.361603 -0.216019 0)
(-0.36714 -0.191379 0)
(-0.371093 -0.166448 0)
(-0.373448 -0.141437 0)
(-0.374211 -0.116551 0)
(-0.373415 -0.0919914 0)
(-0.371111 -0.067944 0)
(-0.367368 -0.0445774 0)
(-0.362274 -0.0220383 0)
(-0.355927 -0.000449617 0)
(-0.348436 0.0200889 0)
(-0.339919 0.0394976 0)
(-0.330496 0.0577225 0)
(-0.320289 0.074734 0)
(-0.309415 0.0905232 0)
(-0.297989 0.105099 0)
(-0.286119 0.118484 0)
(-0.273906 0.130712 0)
(-0.261444 0.141824 0)
(-0.248821 0.151869 0)
(-0.236117 0.160898 0)
(-0.223402 0.168959 0)
(-0.210744 0.176111 0)
(-0.00971554 -0.454892 0)
(-0.0264921 -0.46637 0)
(-0.0444031 -0.465934 0)
(-0.0626707 -0.463285 0)
(-0.0812145 -0.459384 0)
(-0.0997659 -0.454424 0)
(-0.118222 -0.448461 0)
(-0.136518 -0.441509 0)
(-0.154592 -0.433559 0)
(-0.172383 -0.424589 0)
(-0.189828 -0.414571 0)
(-0.206857 -0.403468 0)
(-0.223398 -0.391247 0)
(-0.239369 -0.377877 0)
(-0.254682 -0.363337 0)
(-0.269242 -0.347618 0)
(-0.282951 -0.330732 0)
(-0.295707 -0.312712 0)
(-0.307409 -0.293616 0)
(-0.31796 -0.273526 0)
(-0.327269 -0.25255 0)
(-0.335258 -0.230819 0)
(-0.341861 -0.208483 0)
(-0.34703 -0.185708 0)
(-0.350734 -0.162672 0)
(-0.352964 -0.139557 0)
(-0.35373 -0.116542 0)
(-0.353061 -0.0938036 0)
(-0.351006 -0.0715048 0)
(-0.347629 -0.0497942 0)
(-0.343008 -0.028802 0)
(-0.337234 -0.00863801 0)
(-0.330404 0.0106085 0)
(-0.322624 0.0288655 0)
(-0.314003 0.0460811 0)
(-0.30465 0.0622242 0)
(-0.294674 0.0772823 0)
(-0.284178 0.0912583 0)
(-0.27326 0.104168 0)
(-0.262014 0.116037 0)
(-0.250526 0.126898 0)
(-0.238877 0.136791 0)
(-0.227142 0.145756 0)
(-0.215384 0.153838 0)
(-0.203661 0.161083 0)
(-0.00905842 -0.434296 0)
(-0.0247118 -0.444557 0)
(-0.0415401 -0.443647 0)
(-0.0587656 -0.440771 0)
(-0.0762925 -0.436798 0)
(-0.0938549 -0.431885 0)
(-0.111344 -0.426068 0)
(-0.128686 -0.419349 0)
(-0.145813 -0.411713 0)
(-0.16266 -0.403139 0)
(-0.17916 -0.393599 0)
(-0.195245 -0.383064 0)
(-0.210843 -0.371506 0)
(-0.225877 -0.3589 0)
(-0.240264 -0.345233 0)
(-0.253919 -0.330504 0)
(-0.266752 -0.314726 0)
(-0.278674 -0.297933 0)
(-0.289597 -0.280179 0)
(-0.299436 -0.26154 0)
(-0.308114 -0.242113 0)
(-0.315564 -0.222014 0)
(-0.321731 -0.201374 0)
(-0.326575 -0.18034 0)
(-0.330072 -0.159066 0)
(-0.332215 -0.13771 0)
(-0.333016 -0.11643 0)
(-0.332503 -0.0953785 0)
(-0.33072 -0.0746995 0)
(-0.327725 -0.0545237 0)
(-0.323589 -0.0349667 0)
(-0.318393 -0.0161268 0)
(-0.312225 0.00191537 0)
(-0.305178 0.0190956 0)
(-0.29735 0.0353638 0)
(-0.288841 0.0506883 0)
(-0.279747 0.0650533 0)
(-0.270162 0.078457 0)
(-0.260176 0.0909087 0)
(-0.249873 0.102427 0)
(-0.239334 0.113037 0)
(-0.228631 0.122771 0)
(-0.217835 0.131661 0)
(-0.207004 0.139743 0)
(-0.196187 0.147058 0)
(-0.0084568 -0.414931 0)
(-0.0230333 -0.423957 0)
(-0.0387789 -0.422526 0)
(-0.0549386 -0.41938 0)
(-0.0714087 -0.415299 0)
(-0.087933 -0.410406 0)
(-0.104401 -0.404717 0)
(-0.120736 -0.398218 0)
(-0.136866 -0.390891 0)
(-0.152725 -0.38271 0)
(-0.168244 -0.373649 0)
(-0.183355 -0.36368 0)
(-0.19799 -0.352779 0)
(-0.212075 -0.340928 0)
(-0.225536 -0.328117 0)
(-0.238292 -0.314348 0)
(-0.250266 -0.299636 0)
(-0.261378 -0.284015 0)
(-0.271551 -0.267536 0)
(-0.280712 -0.250265 0)
(-0.288795 -0.232291 0)
(-0.295743 -0.213714 0)
(-0.30151 -0.194653 0)
(-0.306062 -0.175233 0)
(-0.309381 -0.155589 0)
(-0.311464 -0.135859 0)
(-0.312321 -0.116181 0)
(-0.311978 -0.0966878 0)
(-0.310476 -0.0775051 0)
(-0.307867 -0.0587482 0)
(-0.304213 -0.0405198 0)
(-0.299587 -0.0229081 0)
(-0.294068 -0.00598633 0)
(-0.287737 0.0101875 0)
(-0.280682 0.0255669 0)
(-0.272991 0.0401193 0)
(-0.264753 0.0538266 0)
(-0.25605 0.0666827 0)
(-0.246965 0.0786918 0)
(-0.237575 0.089866 0)
(-0.22795 0.100224 0)
(-0.218159 0.10979 0)
(-0.208268 0.11859 0)
(-0.198328 0.126654 0)
(-0.188382 0.134014 0)
(-0.00792146 -0.39671 0)
(-0.02149 -0.404549 0)
(-0.0361763 -0.402595 0)
(-0.0512692 -0.399163 0)
(-0.0666649 -0.394956 0)
(-0.0821234 -0.390064 0)
(-0.0975384 -0.384484 0)
(-0.112833 -0.378193 0)
(-0.127936 -0.371163 0)
(-0.142778 -0.363365 0)
(-0.157294 -0.354772 0)
(-0.171418 -0.345358 0)
(-0.185082 -0.3351 0)
(-0.198219 -0.323983 0)
(-0.210759 -0.311998 0)
(-0.222632 -0.299151 0)
(-0.233766 -0.285456 0)
(-0.244093 -0.270945 0)
(-0.253545 -0.255664 0)
(-0.262059 -0.239674 0)
(-0.269579 -0.223053 0)
(-0.276056 -0.20589 0)
(-0.281452 -0.188288 0)
(-0.285738 -0.170358 0)
(-0.288902 -0.152216 0)
(-0.290939 -0.133983 0)
(-0.291862 -0.115778 0)
(-0.291693 -0.0977179 0)
(-0.29047 -0.0799128 0)
(-0.288237 -0.0624641 0)
(-0.285052 -0.045463 0)
(-0.280977 -0.0289885 0)
(-0.276081 -0.0131072 0)
(-0.270438 0.00212744 0)
(-0.264125 0.0166732 0)
(-0.25722 0.0304975 0)
(-0.249801 0.0435802 0)
(-0.241943 0.0559118 0)
(-0.233721 0.0674919 0)
(-0.225202 0.0783274 0)
(-0.216453 0.088431 0)
(-0.207534 0.0978201 0)
(-0.198506 0.106515 0)
(-0.189417 0.114542 0)
(-0.180305 0.121923 0)
(-0.00745196 -0.379531 0)
(-0.020088 -0.386291 0)
(-0.0337555 -0.383853 0)
(-0.0478005 -0.380146 0)
(-0.0621255 -0.375809 0)
(-0.076513 -0.370908 0)
(-0.0908643 -0.365423 0)
(-0.105106 -0.359325 0)
(-0.119168 -0.352577 0)
(-0.132985 -0.345148 0)
(-0.146492 -0.337007 0)
(-0.159625 -0.328128 0)
(-0.172321 -0.318489 0)
(-0.184518 -0.308076 0)
(-0.196153 -0.296881 0)
(-0.207161 -0.284909 0)
(-0.217479 -0.272174 0)
(-0.227048 -0.258705 0)
(-0.235807 -0.244543 0)
(-0.243704 -0.229744 0)
(-0.250689 -0.214376 0)
(-0.256721 -0.198518 0)
(-0.261769 -0.182259 0)
(-0.265809 -0.165696 0)
(-0.268829 -0.148931 0)
(-0.27083 -0.132069 0)
(-0.27182 -0.115214 0)
(-0.271821 -0.0984683 0)
(-0.270864 -0.0819274 0)
(-0.268991 -0.0656814 0)
(-0.26625 -0.0498109 0)
(-0.262697 -0.0343872 0)
(-0.258393 -0.0194704 0)
(-0.253402 -0.0051103 0)
(-0.247791 0.0086544 0)
(-0.241629 0.0217924 0)
(-0.234986 0.0342819 0)
(-0.227929 0.0461108 0)
(-0.220523 0.0572749 0)
(-0.212831 0.0677765 0)
(-0.204911 0.0776233 0)
(-0.19682 0.0868272 0)
(-0.188611 0.0954035 0)
(-0.180329 0.103372 0)
(-0.172009 0.110751 0)
(-0.00703658 -0.363292 0)
(-0.0188091 -0.369124 0)
(-0.0315087 -0.366277 0)
(-0.0445412 -0.362329 0)
(-0.05782 -0.357872 0)
(-0.0711525 -0.352959 0)
(-0.0844503 -0.347562 0)
(-0.0976459 -0.341643 0)
(-0.110674 -0.335162 0)
(-0.12347 -0.328083 0)
(-0.135974 -0.320373 0)
(-0.148127 -0.312005 0)
(-0.159869 -0.302955 0)
(-0.171144 -0.29321 0)
(-0.181892 -0.282761 0)
(-0.192059 -0.271611 0)
(-0.201587 -0.259775 0)
(-0.210424 -0.247277 0)
(-0.218519 -0.234153 0)
(-0.225825 -0.220454 0)
(-0.2323 -0.206239 0)
(-0.237911 -0.191578 0)
(-0.242629 -0.176548 0)
(-0.246436 -0.161235 0)
(-0.249321 -0.145728 0)
(-0.251286 -0.130118 0)
(-0.252338 -0.114495 0)
(-0.252496 -0.0989493 0)
(-0.251789 -0.0835651 0)
(-0.250251 -0.0684213 0)
(-0.247925 -0.0535899 0)
(-0.244859 -0.0391346 0)
(-0.241107 -0.0251103 0)
(-0.236724 -0.0115628 0)
(-0.23177 0.0014712 0)
(-0.226304 0.013963 0)
(-0.220388 0.0258898 0)
(-0.214081 0.0372372 0)
(-0.207442 0.0479981 0)
(-0.200526 0.0581709 0)
(-0.193387 0.0677591 0)
(-0.186074 0.0767701 0)
(-0.178636 0.0852143 0)
(-0.171116 0.0931074 0)
(-0.163545 0.100462 0)
(-0.00665621 -0.347917 0)
(-0.0176202 -0.352991 0)
(-0.0294076 -0.349827 0)
(-0.0414758 -0.345683 0)
(-0.0537504 -0.341129 0)
(-0.0660627 -0.336211 0)
(-0.0783362 -0.330899 0)
(-0.0905102 -0.325151 0)
(-0.102525 -0.318923 0)
(-0.114321 -0.312176 0)
(-0.125843 -0.304874 0)
(-0.137036 -0.296988 0)
(-0.147846 -0.288495 0)
(-0.158221 -0.279377 0)
(-0.168109 -0.269626 0)
(-0.17746 -0.259244 0)
(-0.186226 -0.248241 0)
(-0.19436 -0.23664 0)
(-0.201817 -0.224474 0)
(-0.208558 -0.211784 0)
(-0.214547 -0.198624 0)
(-0.219754 -0.185055 0)
(-0.224157 -0.171146 0)
(-0.22774 -0.156971 0)
(-0.230494 -0.142607 0)
(-0.232419 -0.128134 0)
(-0.233523 -0.113633 0)
(-0.233823 -0.0991799 0)
(-0.233342 -0.0848504 0)
(-0.23211 -0.0707141 0)
(-0.230164 -0.0568351 0)
(-0.227547 -0.0432704 0)
(-0.224303 -0.0300701 0)
(-0.220482 -0.0172763 0)
(-0.216134 -0.00492378 0)
(-0.211313 0.00696047 0)
(-0.20607 0.0183541 0)
(-0.200461 0.0292411 0)
(-0.194534 0.0396119 0)
(-0.188342 0.0494619 0)
(-0.181931 0.058791 0)
(-0.175346 0.0676029 0)
(-0.16863 0.0759038 0)
(-0.161823 0.0837053 0)
(-0.154957 0.091016 0)
(-0.00629102 -0.333362 0)
(-0.0164874 -0.337837 0)
(-0.0274191 -0.334446 0)
(-0.0385791 -0.330161 0)
(-0.0499037 -0.32554 0)
(-0.0612448 -0.320633 0)
(-0.0725373 -0.315411 0)
(-0.0837282 -0.309831 0)
(-0.094764 -0.303846 0)
(-0.105592 -0.297414 0)
(-0.116161 -0.290499 0)
(-0.126423 -0.283067 0)
(-0.13633 -0.275094 0)
(-0.145834 -0.266561 0)
(-0.154892 -0.257459 0)
(-0.163458 -0.247786 0)
(-0.171491 -0.237552 0)
(-0.178949 -0.226775 0)
(-0.185796 -0.215483 0)
(-0.191996 -0.203714 0)
(-0.197519 -0.191515 0)
(-0.202341 -0.178939 0)
(-0.20644 -0.166046 0)
(-0.209804 -0.152901 0)
(-0.212426 -0.139573 0)
(-0.214305 -0.126131 0)
(-0.215449 -0.112645 0)
(-0.21587 -0.0991845 0)
(-0.215589 -0.0858142 0)
(-0.214632 -0.0725963 0)
(-0.21303 -0.0595879 0)
(-0.210818 -0.0468405 0)
(-0.208037 -0.0343992 0)
(-0.204728 -0.0223032 0)
(-0.200935 -0.0105849 0)
(-0.196705 0.000729411 0)
(-0.192082 0.0116191 0)
(-0.187113 0.0220669 0)
(-0.181845 0.0320614 0)
(-0.176322 0.0415958 0)
(-0.170585 0.0506672 0)
(-0.164676 0.0592757 0)
(-0.158632 0.0674245 0)
(-0.15249 0.0751212 0)
(-0.146284 0.082371 0)
(-0.00592748 -0.319612 0)
(-0.0153879 -0.323615 0)
(-0.0255183 -0.320075 0)
(-0.035829 -0.315702 0)
(-0.0462635 -0.31105 0)
(-0.0566902 -0.306177 0)
(-0.0670536 -0.301058 0)
(-0.0773084 -0.295648 0)
(-0.0874082 -0.289901 0)
(-0.097307 -0.283773 0)
(-0.106961 -0.277223 0)
(-0.116327 -0.270218 0)
(-0.125364 -0.26273 0)
(-0.134032 -0.254739 0)
(-0.142291 -0.246235 0)
(-0.150104 -0.237214 0)
(-0.157434 -0.227682 0)
(-0.164247 -0.217656 0)
(-0.17051 -0.20716 0)
(-0.176193 -0.196226 0)
(-0.18127 -0.184896 0)
(-0.18572 -0.173217 0)
(-0.189526 -0.161241 0)
(-0.192676 -0.149027 0)
(-0.195163 -0.136633 0)
(-0.196988 -0.124122 0)
(-0.198156 -0.111554 0)