/*--------------------------------*- C++ -*----------------------------------*\
| =========                 |                                                 |
| \\      /  F ield         | OpenFOAM: The Open Source CFD Toolbox           |
|  \\    /   O peration     | Version:  5.0                                   |
|   \\  /    A nd           | Web:      www.OpenFOAM.org                      |
|    \\/     M anipulation  |                                                 |
\*---------------------------------------------------------------------------*/
FoamFile
{
    version     2.0;
    format      ascii;
    class       volScalarField;
    location    "0.8";
    object      alpha.water;
}
// * * * * * * * * * * * * * * * * * * * * * * * * * * * * * * * * * * * * * //

dimensions      [0 0 0 0 0 0 0];

internalField   nonuniform List<scalar> 
1935
(
-2.16552e-10
-1.54801e-10
-1.02176e-10
-6.55009e-11
-4.2034e-11
-2.74101e-11
-1.81931e-11
-1.21858e-11
-8.11193e-12
-5.25742e-12
-3.21416e-12
-1.72336e-12
-5.79877e-13
4.95849e-13
3.02607e-12
5.41961e-12
5.7688e-12
5.48315e-12
4.44872e-12
2.743e-12
1.20756e-12
3.87871e-13
9.46688e-14
1.60691e-14
1.53308e-15
8.21376e-17
6.18471e-18
7.69966e-19
8.40138e-20
8.4221e-21
8.06941e-22
6.94496e-23
5.10079e-24
3.14395e-25
1.58473e-26
6.2782e-28
1.93346e-29
5.68976e-31
3.17431e-32
4.1234e-34
2.33767e-36
2.52533e-39
1.00803e-56
-1.76222e-10
-6.91642e-11
3.39874e-27
1.3198e-11
-1.67443e-10
-1.27292e-10
-4.60815e-11
0
-1.32132e-10
-1.32619e-10
-8.9517e-11
-2.64409e-11
-9.62177e-11
-1.14014e-10
-9.9221e-11
-5.32429e-11
-6.79916e-11
-8.98819e-11
-9.02392e-11
-6.10772e-11
-4.7812e-11
-6.81095e-11
-7.46278e-11
-5.7285e-11
-3.37569e-11
-5.0732e-11
-5.87885e-11
-4.86929e-11
-2.38743e-11
-3.74511e-11
-4.51708e-11
-3.93782e-11
-1.67554e-11
-2.73746e-11
-3.42172e-11
-3.11204e-11
-1.1506e-11
-1.96666e-11
-2.55834e-11
-2.43437e-11
-7.57907e-12
-1.37054e-11
-1.87449e-11
-1.8854e-11
-4.61969e-12
-9.05822e-12
-1.32404e-11
-1.42808e-11
-2.34966e-12
-5.39865e-12
-8.72208e-12
-1.02902e-11
-4.94791e-13
-2.4326e-12
-4.9191e-12
-6.6474e-12
2.0231e-12
0
-1.53113e-12
-3.17363e-12
7.58545e-12
6.0333e-12
3.07134e-12
-2.72827e-29
1.15261e-11
1.62976e-11
1.44458e-11
1.06261e-11
1.14587e-11
2.06888e-11
2.9292e-11
3.22072e-11
1.03513e-11
1.98579e-11
3.26814e-11
4.89318e-11
7.45441e-12
1.63462e-11
3.0108e-11
4.83358e-11
3.85081e-12
9.94788e-12
2.173e-11
4.04085e-11
1.40434e-12
4.13108e-12
1.05825e-11
2.3358e-11
3.92885e-13
1.26591e-12
3.52833e-12
8.63681e-12
8.46831e-14
3.20673e-13
9.8511e-13
2.51337e-12
1.14298e-14
5.75733e-14
2.21796e-13
6.59823e-13
7.90342e-16
5.37899e-15
2.82844e-14
1.11257e-13
4.91047e-17
3.17803e-16
1.85121e-15
8.92365e-15
6.15539e-18
3.8778e-17
2.08014e-16
8.95817e-16
7.1825e-19
5.34076e-18
3.35447e-17
1.57975e-16
7.17934e-20
6.24504e-19
4.63139e-18
2.45367e-17
6.87629e-21
7.00071e-20
6.05013e-19
3.54722e-18
6.12652e-22
7.53132e-21
7.71344e-20
5.10691e-19
4.59717e-23
6.95487e-22
8.84457e-21
7.00683e-20
2.76207e-24
4.94711e-23
8.2556e-22
8.54446e-21
1.32572e-25
2.54135e-24
5.76739e-23
8.64191e-22
5.03406e-27
8.79873e-26
2.66548e-24
6.53092e-23
1.53564e-28
1.94084e-27
6.24136e-26
3.05403e-24
5.37977e-30
3.75111e-29
2.68954e-28
5.12924e-26
3.30754e-31
7.86085e-31
4.0181e-32
4.34279e-31
3.23446e-33
7.50921e-33
8.7573e-34
2.0926e-32
1.92264e-35
4.43512e-35
3.62768e-36
4.25796e-33
3.23529e-38
8.24119e-38
2.68252e-42
2.29657e-35
-5.23452e-61
-5.12899e-57
-1.82127e-54
-1.40684e-50
1.10089e-10
4.19943e-10
1.11405e-09
3.38866e-09
9.01615e-09
2.0011e-08
3.85386e-08
1.13767e-07
8.54901e-07
9.38261e-06
0.000350132
0.000352158
5.33366e-05
9.59967e-06
2.74439e-05
0.000125599
3.55183e-05
3.42132e-08
6.97983e-08
5.78261e-08
8.39804e-10
4.99729e-09
4.99022e-09
4.99895e-09
5.17979e-09
1.72492e-08
1.29517e-07
7.59096e-08
1.20369e-07
6.08523e-08
1.7449e-08
4.55072e-09
2.30904e-09
4.74953e-09
1.92873e-08
1.51048e-06
0.000154977
0.000322635
0.000876795
0.815249
8.63296e-12
1.02712e-10
2.80425e-10
6.99535e-10
1.49471e-09
2.64832e-09
4.49934e-09
4.19986e-08
3.06407e-07
0.000147457
0.000362826
0.000359889
2.37199e-06
8.60531e-06
4.39564e-05
4.46552e-05
3.16991e-08
1.28977e-08
1.15865e-08
6.18907e-09
5.02071e-09
4.9877e-09
4.99901e-09
5.14164e-09
6.07561e-09
2.82825e-07
3.10857e-06
2.16683e-06
9.60411e-06
5.43101e-07
1.29711e-07
1.64791e-08
4.63064e-09
2.17023e-08
4.3296e-08
4.47166e-07
0.000196984
0.00493776
0.0098586
0.911495
0
5.49746e-11
1.21363e-10
2.81109e-10
5.23126e-10
5.25039e-10
4.32852e-10
3.36789e-09
2.38213e-05
0.000364274
0.000363533
0.000215365
1.77395e-06
1.12669e-05
3.44184e-05
9.17406e-08
1.34911e-08
1.15981e-08
1.01343e-08
6.81139e-09
5.67977e-09
9.30677e-09
9.10207e-09
6.10769e-09
7.73982e-09
2.48795e-08
7.43443e-06
9.56987e-05
0.000161484
7.56658e-05
4.12516e-06
9.23382e-08
1.64354e-08
4.38869e-08
6.78527e-08
5.31324e-07
4.03128e-05
0.00912074
0.0439319
0.506529
-8.16697e-12
2.89544e-11
1.26043e-10
2.91883e-10
3.51658e-10
1.95665e-10
8.07404e-11
4.32263e-10
9.20179e-05
0.000364625
0.000364274
6.48738e-06
1.57604e-06
1.02983e-05
1.07531e-05
1.93332e-08
1.42928e-08
1.34911e-08
3.34762e-08
9.93793e-09
2.38096e-08
7.11758e-08
5.85772e-08
1.74916e-08
1.86002e-08
2.6944e-08
1.12123e-05
0.000191127
0.000191734
0.000192582
0.000124139
7.18179e-06
9.35662e-08
7.89443e-08
2.38679e-07
4.41941e-07
1.06041e-05
0.0117912
0.044866
0.0337188
-2.00916e-11
1.26694e-11
1.18409e-10
2.85085e-10
3.30338e-10
1.50478e-10
3.42852e-11
3.35465e-07
0.000226303
0.000364625
0.000313491
1.43664e-06
1.28125e-06
1.73843e-06
2.83329e-07
2.42646e-07
7.15203e-07
8.3757e-07
1.13525e-08
1.05742e-08
4.56494e-08
7.44727e-08
7.44837e-08
7.40308e-08
4.07999e-08
6.41063e-09
2.51206e-06
0.000102985
0.000192582
0.000193087
0.000193702
0.000140076
6.23444e-07
1.75451e-07
6.76679e-07
-4.18192e-07
0.000446303
0.0066475
-4.83826e-11
2.52555e-10
-2.41376e-11
4.35823e-12
9.89119e-11
2.48091e-10
2.80997e-10
1.09954e-10
2.788e-11
3.47501e-11
0.000211536
0.000364625
8.57023e-05
1.21386e-06
1.10709e-06
5.21324e-07
4.14424e-07
1.31489e-06
3.27647e-06
3.2613e-06
1.32221e-06
1.09089e-08
2.15176e-08
7.4473e-08
7.44434e-08
7.39079e-08
6.88526e-08
5.35032e-09
3.85454e-10
8.53927e-07
0.000128989
0.000193702
0.000194054
0.000193965
4.80129e-05
5.07033e-06
4.96813e-07
-1.14493e-07
0.000424289
1.26061e-08
5.93417e-10
5.06411e-10
-2.33972e-11
5.45543e-29
7.33182e-11
1.88973e-10
1.62478e-10
5.50484e-11
2.68292e-11
2.788e-11
7.19747e-05
0.000150553
1.67351e-06
4.98467e-06
4.89916e-06
2.46589e-06
5.06824e-07
1.30514e-06
3.27647e-06
3.27646e-06
9.69314e-07
1.37173e-07
6.28517e-09
2.26825e-08
3.9366e-08
7.03604e-08
6.13771e-08
6.17198e-09
3.64663e-10
3.52755e-10
3.64663e-10
0.000113798
0.000193738
0.000194054
0.000189531
3.69883e-05
5.1808e-08
-2.48753e-24
3.47072e-05
-1.65768e-08
1.64189e-23
4.6612e-11
-2.06445e-11
-1.45539e-12
4.66253e-11
9.62636e-11
9.34883e-11
2.80184e-11
2.71693e-11
4.29985e-08
6.30326e-08
1.04966e-06
4.29613e-07
4.06673e-06
4.97112e-06
4.99536e-06
7.12969e-07
5.04048e-07
1.03876e-06
1.62944e-06
1.9416e-07
9.38269e-09
6.84302e-09
3.39011e-10
3.27602e-10
7.75795e-09
5.92029e-09
3.51758e-09
3.92441e-10
3.42367e-10
3.52755e-10
3.77748e-10
0.000151695
0.000193738
0.000191268
6.71849e-05
1.01504e-07
6.84787e-09
-9.7417e-11
-3.53941e-09
-2.04171e-10
7.30625e-10
-1.75329e-11
-2.95191e-12
1.96153e-11
4.23825e-11
6.05675e-09
8.23998e-10
2.68194e-11
7.12338e-08
1.48847e-07
3.52754e-07
2.12509e-07
6.35227e-07
4.99536e-06
4.99536e-06
1.67416e-06
4.45501e-08
8.02049e-09
4.14793e-09
3.45708e-08
3.79657e-08
3.07127e-08
4.67335e-09
3.05096e-10
2.96263e-10
2.93953e-10
2.94804e-10
3.58644e-10
3.4065e-10
2.82848e-10
4.69539e-10
8.40362e-06
0.000188282
0.000190891
4.57508e-05
7.79365e-08
2.71564e-09
1.09485e-10
0
-3.46981e-11
1.34818e-09
-1.47628e-11
-3.77081e-12
5.04287e-12
1.94104e-12
4.5673e-09
1.21131e-10
4.43998e-11
1.74492e-06
1.21762e-06
2.12509e-07
1.65977e-07
1.26403e-07
3.80251e-06
4.76021e-06
1.33098e-06
8.02377e-09
3.76065e-09
1.46541e-09
4.03642e-09
2.73204e-08
2.39798e-08
6.44366e-09
4.49195e-10
4.39574e-10
3.78448e-10
3.0305e-10
2.44497e-10
2.09039e-10
2.08095e-10
1.56417e-09
1.63965e-08
5.61977e-05
5.42391e-05
4.77061e-06
-6.48002e-09
-1.77267e-09
1.61779e-10
8.49865e-11
1.4937e-10
1.48981e-09
-1.24469e-11
-4.1044e-12
1.50935e-12
1.22174e-12
-1.50995e-11
6.67504e-08
8.28846e-07
2.77037e-06
2.76909e-06
1.16285e-06
1.26403e-07
1.18662e-07
3.13033e-07
4.40297e-07
2.90541e-07
4.17856e-08
1.46541e-09
1.23395e-09
1.16589e-09
1.1094e-09
9.14775e-10
9.15119e-10
9.26556e-10
8.42309e-10
6.16301e-10
3.58913e-10
2.13911e-10
2.00067e-10
-1.1602e-10
1.24328e-08
3.89331e-08
2.08895e-08
4.15461e-09
9.06749e-10
4.11723e-10
3.93035e-10
3.78732e-10
4.19608e-10
5.84584e-10
1.55039e-09
-1.04126e-11
-4.14547e-12
9.31462e-13
9.6573e-13
1.21184e-12
1.93146e-11
2.69011e-06
2.78026e-06
2.77821e-06
2.77205e-06
1.67361e-06
9.59777e-08
5.86502e-08
2.30866e-08
6.7157e-09
1.01984e-08
2.67401e-09
1.42258e-09
1.27732e-09
1.27355e-09
1.26811e-09
1.23123e-09
1.10464e-09
8.87162e-10
6.07379e-10
2.87944e-10
2.04417e-10
1.96687e-10
1.78447e-08
2.10249e-06
2.53133e-06
2.98655e-07
1.42436e-08
2.51566e-09
6.46448e-10
5.03746e-10
4.96876e-10
5.36142e-10
7.68083e-10
1.99948e-09
-8.40411e-12
-3.97068e-12
5.83371e-13
1.27239e-12
1.32763e-12
-4.94541e-12
1.4601e-06
2.79784e-06
2.78938e-06
2.77821e-06
2.77499e-06
2.14045e-06
1.97564e-07
6.71242e-09
2.77108e-09
1.95182e-09
1.83704e-09
1.76557e-09
1.75644e-09
1.74987e-09
1.67234e-09
1.44103e-09
1.06631e-09
7.15315e-10
4.2967e-10
2.24884e-10
2.01942e-10
2.01474e-10
1.7606e-06
4.43579e-06
4.45075e-06
3.1578e-06
4.19673e-07
9.78367e-09
1.09279e-09
6.0605e-10
5.07871e-10
5.42202e-10
9.03323e-10
2.47946e-09
-6.20202e-12
-3.46606e-12
-1.36386e-29
1.94799e-12
2.01494e-12
-1.49497e-11
4.8202e-10
1.17567e-06
2.79903e-06
2.7821e-06
2.77018e-06
2.77083e-06
1.61573e-06
3.28579e-08
3.82032e-09
2.19671e-09
1.9655e-09
1.93165e-09
1.96826e-09
1.93946e-09
1.7629e-09
1.35783e-09
8.83624e-10
5.69711e-10
3.48912e-10
2.14155e-10
1.98773e-10
2.01253e-10
3.23832e-06
4.45075e-06
4.45888e-06
4.45681e-06
1.95901e-06
1.10799e-08
1.48672e-09
5.06624e-10
4.15587e-10
5.22697e-10
1.04504e-09
2.55638e-09
-3.67083e-12
-2.43369e-12
-2.60989e-13
1.84686e-12
1.9724e-12
9.51742e-13
-8.58655e-11
7.57296e-09
5.34001e-07
1.99487e-06
2.77074e-06
2.74135e-06
1.45979e-06
2.91224e-08
4.38904e-09
2.23862e-09
1.90401e-09
1.83762e-09
1.8429e-09
1.73827e-09
1.41288e-09
9.33667e-10
5.54089e-10
3.81265e-10
2.7953e-10
2.07018e-10
1.96317e-10
1.98771e-10
2.2488e-06
4.4208e-06
4.45075e-06
4.45613e-06
2.06778e-06
1.1724e-08
1.25267e-09
3.92442e-10
3.11885e-10
4.93804e-10
1.16484e-09
2.24941e-09
-7.62794e-13
-7.87513e-13
-1.61882e-14
1.85916e-12
2.17457e-12
1.15974e-12
2.32015e-12
7.5365e-10
3.73497e-09
6.15001e-08
6.96941e-07
7.11486e-07
3.9114e-07
1.11979e-07
3.84308e-09
1.83396e-09
1.49971e-09
1.42328e-09
1.29888e-09
1.04361e-09
7.03963e-10
4.1222e-10
2.66158e-10
2.27869e-10
2.16571e-10
1.99383e-10
1.90908e-10
1.96317e-10
2.80023e-07
4.21696e-06
4.4208e-06
3.81853e-06
3.05647e-07
3.27311e-09
5.9378e-10
3.04974e-10
2.7117e-10
4.85873e-10
1.26205e-09
1.76968e-09
5.96076e-12
3.20516e-12
2.22999e-12
2.96066e-12
3.35011e-12
3.44209e-12
2.5364e-12
5.0363e-11
3.1551e-10
9.55709e-10
2.8379e-09
2.86908e-09
1.90063e-09
2.21651e-08
1.32942e-08
3.73437e-09
1.29125e-09
8.24514e-10
5.65379e-10
3.6934e-10
2.31111e-10
1.57711e-10
1.41712e-10
1.46578e-10
1.64004e-10
1.79119e-10
1.8199e-10
1.94838e-10
2.37359e-10
1.84047e-06
3.71718e-06
5.52279e-07
4.64023e-10
2.47681e-10
2.35002e-10
2.46535e-10
2.58786e-10
5.51259e-10
1.32189e-09
1.48766e-09
2.68855e-11
1.96229e-11
1.38714e-11
1.04818e-11
8.71853e-12
9.48034e-12
1.05167e-11
2.77595e-11
6.97118e-11
1.60006e-10
2.27051e-10
3.48879e-10
2.98616e-10
2.66868e-10
1.58782e-09
1.25898e-09
7.3219e-10
3.49271e-10
1.85399e-10
1.07346e-10
1.01283e-10
1.02348e-10
1.02344e-10
1.0786e-10
1.25073e-10
1.5815e-10
1.89734e-10
2.37287e-10
3.96048e-08
1.12947e-07
3.19004e-10
2.52274e-10
2.27002e-10
2.3566e-10
2.35943e-10
2.42469e-10
2.56229e-10
6.1374e-10
1.33641e-09
1.36051e-09
6.58519e-11
6.03761e-11
5.06733e-11
4.05337e-11
3.21571e-11
2.68856e-11
2.81042e-11
3.33197e-11
4.36253e-11
8.50953e-11
1.26724e-10
1.53687e-10
1.67642e-10
1.87507e-10
1.9933e-10
1.92302e-10
1.6651e-10
1.22998e-10
1.00218e-10
1.00218e-10
1.00218e-10
1.01283e-10
2.54428e-10
5.3719e-10
7.38906e-10
1.60206e-09
4.41161e-09
1.62982e-08
5.32798e-09
3.46526e-10
2.54108e-10
2.37619e-10
2.36065e-10
2.36054e-10
2.36055e-10
2.41957e-10
2.55637e-10
6.32477e-10
1.32533e-09
1.31368e-09
7.58111e-11
1.11849e-10
1.36282e-10
1.25933e-10
1.09311e-10
9.31582e-11
8.10991e-11
6.93418e-11
7.39945e-11
8.78902e-11
1.02331e-10
1.29232e-10
1.60349e-10
1.896e-10
1.99889e-10
1.9817e-10
1.93891e-10
1.96235e-10
2.20692e-10
3.06138e-10
8.44663e-10
3.98342e-09
1.14737e-08
1.45068e-08
1.37223e-08
2.07502e-08
2.69739e-08
2.31393e-08
5.53851e-09
3.71017e-10
2.67104e-10
2.4643e-10
2.37557e-10
2.36078e-10
2.3872e-10
2.48126e-10
2.60064e-10
5.904e-10
1.31504e-09
1.2905e-09
6.96458e-11
1.1302e-10
1.83919e-10
2.70043e-10
2.924e-10
2.8112e-10
2.63539e-10
2.38868e-10
2.10415e-10
1.92962e-10
1.98699e-10
2.16368e-10
2.46975e-10
2.92726e-10
3.28417e-10
3.2831e-10
2.98618e-10
2.29681e-10
2.20463e-10
2.22274e-10
8.16596e-09
2.6085e-08
2.69317e-08
2.69679e-08
2.69736e-08
2.69738e-08
2.69801e-08
2.69809e-08
1.21462e-08
7.97725e-10
3.53567e-10
3.16904e-10
2.63922e-10
2.42731e-10
2.45731e-10
2.55766e-10
2.67048e-10
4.3537e-10
1.28468e-09
1.25864e-09
4.84358e-11
9.43664e-11
1.70683e-10
2.75025e-10
4.11173e-10
4.99499e-10
5.11565e-10
5.12481e-10
5.04738e-10
4.90295e-10
4.78595e-10
4.75712e-10
4.79906e-10
4.84247e-10
4.59155e-10
3.73369e-10
2.60949e-10
2.22179e-10
2.22274e-10
5.06801e-09
2.42011e-08
2.6739e-08
2.68913e-08
2.69424e-08
2.69667e-08
2.69772e-08
2.69731e-08
2.11297e-08
4.63743e-09
2.98085e-10
3.72538e-10
3.53103e-10
2.84998e-10
2.51322e-10
2.50425e-10
2.58272e-10
2.71958e-10
3.35966e-10
1.0583e-09
1.13193e-09
2.13492e-11
5.17379e-11
1.1286e-10
2.17165e-10
3.58889e-10
4.82564e-10
5.72135e-10
5.72672e-10
5.72672e-10
5.72672e-10
5.72587e-10
5.72487e-10
5.62758e-10
5.15923e-10
4.27468e-10
3.1467e-10
2.45344e-10
2.29494e-10
2.34291e-10
3.95297e-10
2.60449e-09
1.45594e-08
2.66494e-08
2.68932e-08
2.6942e-08
2.55127e-08
1.17869e-08
6.39094e-10
1.4675e-10
2.22925e-10
2.42324e-10
2.41571e-10
2.34305e-10
2.33808e-10
2.37231e-10
2.49456e-10
2.80701e-10
3.13392e-10
5.2294e-10
7.79965e-10
6.34972e-12
1.6598e-11
4.11698e-11
9.51708e-11
1.86732e-10
3.08965e-10
4.29309e-10
5.11856e-10
5.48427e-10
5.50495e-10
5.46283e-10
5.30601e-10
4.9154e-10
4.19009e-10
3.12531e-10
2.4854e-10
2.82591e-10
4.29684e-10
4.653e-10
3.93114e-10
1.32242e-10
5.95594e-11
8.62398e-10
2.46595e-09
2.20319e-09
2.96549e-10
5.17701e-11
5.17408e-11
5.86265e-11
7.26388e-11
9.04999e-11
1.11975e-10
1.35278e-10
1.65269e-10
2.09105e-10
2.20648e-10
2.19038e-10
3.65944e-10
6.90212e-10
7.68018e-10
1.73194e-12
4.1625e-12
9.36774e-12
2.11816e-11
4.60244e-11
9.27339e-11
1.63697e-10
2.46033e-10
3.16253e-10
3.3866e-10
3.33844e-10
3.18554e-10
2.90985e-10
2.55692e-10
2.23337e-10
2.03291e-10
1.91383e-10
1.8186e-10
1.70928e-10
1.4446e-10
9.73632e-11
5.67508e-11
5.25034e-11
5.20957e-11
5.18773e-11
5.17701e-11
5.17408e-11
5.17408e-11
5.23273e-11
5.61774e-11
6.65674e-11
8.3489e-11
1.06219e-10
1.44015e-10
1.99955e-10
2.02652e-10
2.03154e-10
2.04784e-10
9.65343e-10
1.06364e-09
3.70858e-13
9.94852e-13
2.19465e-12
4.35165e-12
8.30105e-12
1.5778e-11
2.93947e-11
4.97958e-11
7.35823e-11
9.18473e-11
1.0258e-10
1.09068e-10
1.16016e-10
1.2623e-10
1.27742e-10
1.2528e-10
1.18442e-10
1.06334e-10
9.05547e-11
7.6503e-11
6.64136e-11
5.82793e-11
5.43078e-11
5.25029e-11
5.20957e-11
5.29953e-11
5.26008e-11
5.24401e-11
5.44459e-11
6.26351e-11
7.93693e-11
1.03909e-10
1.33627e-10
1.50337e-10
1.49208e-10
1.50757e-10
1.79948e-08
3.02665e-09
9.70518e-10
1.07311e-09
4.08005e-14
1.45955e-13
3.92964e-13
8.57609e-13
1.62635e-12
2.82405e-12
4.65327e-12
7.35218e-12
1.09735e-11
1.51153e-11
1.95998e-11
2.54121e-11
2.88261e-11
2.8313e-11
2.64925e-11
2.31526e-11
1.91871e-11
1.33673e-11
1.2112e-11
1.26036e-11
1.62681e-11
2.65889e-11
5.1282e-11
6.01156e-11
5.651e-11
5.76624e-11
5.25901e-11
5.95163e-11
8.47564e-11
1.65023e-10
3.17256e-10
4.12419e-10
4.02559e-10
2.46318e-10
1.50757e-10
1.15632e-08
7.56125e-08
7.11297e-08
7.04392e-09
5.75652e-10
3.89492e-15
1.50852e-14
4.69195e-14
1.19042e-13
2.53538e-13
4.68718e-13
7.75976e-13
1.17725e-12
1.65823e-12
2.14903e-12
2.584e-12
2.60094e-12
2.52284e-12
2.35473e-12
2.14725e-12
1.92626e-12
1.95353e-12
2.22287e-12
4.2013e-12
1.13121e-11
2.28538e-11
3.98133e-11
4.68059e-11
2.19463e-10
3.53702e-11
-6.32688e-11
7.63723e-11
7.48439e-10
3.10319e-09
3.32359e-09
2.02962e-09
4.52991e-10
1.74359e-10
1.57728e-10
1.53455e-10
1.04125e-08
7.99665e-08
7.99665e-08
3.0231e-08
3.3705e-11
7.00878e-16
2.62025e-15
7.83789e-15
1.9538e-14
4.14933e-14
7.6316e-14
1.23374e-13
1.76809e-13
2.2717e-13
2.68367e-13
3.00098e-13
3.28166e-13
3.59828e-13
3.98194e-13
4.61259e-13
5.01841e-13
7.33547e-13
1.66576e-12
7.08564e-12
1.03831e-10
-2.84343e-10
-3.93352e-10
1.50606e-09
2.32583e-09
-1.61963e-09
1.78947e-09
9.95901e-10
1.07155e-09
9.79523e-10
3.72339e-10
2.09597e-10
1.68653e-10
1.58115e-10
1.58111e-10
1.54179e-10
1.54663e-10
3.23392e-08
7.99665e-08
4.78199e-08
2.46961e-10
1.19464e-16
4.6327e-16
1.37225e-15
3.27423e-15
6.52688e-15
1.12037e-14
1.70702e-14
2.39415e-14
3.21869e-14
4.29266e-14
5.78317e-14
7.83841e-14
1.0445e-13
1.38931e-13
1.50302e-13
3.02594e-13
2.41608e-12
4.27367e-11
-1.26065e-10
-3.94917e-10
5.49574e-09
1.67452e-08
3.9781e-08
5.40464e-06
3.76643e-06
3.45945e-07
4.58548e-06
7.99209e-05
0.000119894
4.49021e-05
3.72336e-10
0.000191557
0.000148576
-8.94241e-09
7.68182e-11
5.06888e-10
2.48154e-08
6.31159e-08
3.63375e-08
1.03088e-09
1.86187e-17
7.37973e-17
2.15423e-16
4.9918e-16
9.74925e-16
1.70825e-15
2.85495e-15
4.75122e-15
7.96415e-15
1.32383e-14
2.12349e-14
3.20224e-14
4.64513e-14
4.50917e-14
-3.1251e-14
7.38939e-12
-1.59008e-10
2.786e-10
5.18263e-09
6.12895e-08
1.19187e-07
7.90013e-06
2.81865e-05
0.000187812
0.00015741
7.65933e-05
0.000288125
0.000392515
0.000394452
0.000400701
0.000409604
0.00042923
0.000446552
0.000341704
4.01956e-06
1.20569e-07
2.10771e-08
6.29222e-09
6.23691e-09
1.22777e-09
2.93087e-18
1.19051e-17
3.47832e-17
8.24912e-17
1.76397e-16
3.68966e-16
7.7834e-16
1.62509e-15
3.24294e-15
6.01475e-15
1.02123e-14
1.67349e-14
1.64638e-14
-1.69401e-14
-2.9036e-12
-2.69855e-10
3.46819e-09
2.09136e-08
1.00117e-07
3.1003e-05
5.82444e-05
0.000249766
0.000276547
0.00027328
0.000287477
0.000293449
0.000294583
0.000226231
9.10928e-05
9.18186e-05
0.000184154
0.000446552
0.000451681
0.000470365
0.000362485
6.28834e-06
6.88171e-08
-9.45586e-11
7.42466e-10
7.27897e-10
4.61948e-19
1.99156e-18
6.21515e-18
1.68014e-17
4.43314e-17
1.18295e-16
3.08234e-16
7.49782e-16
1.65516e-15
3.30328e-15
6.43605e-15
7.3981e-15
1.69813e-14
-8.15091e-12
5.6718e-11
3.40666e-09
6.04117e-08
1.19296e-06
3.30629e-05
0.000309241
0.000305613
0.000302103
0.000285094
0.000201062
5.51803e-05
1.28643e-06
3.7768e-07
3.13357e-07
3.22665e-07
4.13506e-07
3.35405e-06
5.90839e-05
0.000128917
0.000487981
0.000513718
0.000245222
4.93561e-06
-8.23234e-10
-1.07929e-09
4.63185e-11
6.99483e-20
3.39215e-19
1.23108e-18
4.12299e-18
1.3937e-17
4.65156e-17
1.44277e-16
3.97692e-16
9.71252e-16
2.29081e-15
5.94406e-15
1.31699e-14
-3.677e-12
2.31391e-11
7.93873e-10
6.04872e-08
1.13989e-05
0.000183417
0.0003151
0.000316388
0.000266372
2.15999e-05
5.18633e-07
2.43783e-07
1.96503e-07
1.90898e-07
1.9106e-07
1.9103e-07
2.32882e-07
2.34959e-07
2.90559e-07
6.52876e-07
1.47533e-06
0.000199505
0.000534086
0.000558641
9.91702e-05
-7.57935e-09
-1.80403e-09
3.02843e-26
9.67459e-21
5.59482e-20
2.52002e-19
1.08246e-18
4.69659e-18
1.94571e-17
7.10897e-17
2.26305e-16
6.94075e-16
4.43916e-15
1.38456e-13
-1.05007e-12
9.46186e-12
1.34951e-10
2.38054e-08
1.38398e-05
0.000303403
0.000341219
0.000311924
7.08158e-05
1.84785e-06
1.90834e-06
1.5246e-06
5.28079e-07
2.43774e-07
1.96503e-07
2.76375e-07
3.00733e-07
2.80119e-07
2.24409e-07
2.30416e-07
2.70472e-07
3.95954e-07
1.49542e-06
0.000493397
0.000562829
0.000134565
2.88324e-08
-5.38651e-10
2.59766e-10
1.14013e-21
8.28885e-21
4.82509e-20
2.69753e-19
1.5119e-18
7.76262e-18
3.53809e-17
1.58571e-16
1.84088e-15
1.94067e-13
1.39615e-12
9.22883e-12
2.04958e-10
1.46987e-07
1.86556e-05
0.000290352
0.000368738
0.000266252
1.89485e-06
1.8478e-06
1.84785e-06
1.84785e-06
2.13124e-06
7.23421e-06
5.1083e-06
2.24866e-07
2.2823e-07
2.24594e-07
2.23338e-07
2.23422e-07
2.24554e-07
2.31091e-07
2.80469e-07
4.43188e-07
0.000208108
0.000562829
0.000157355
3.56317e-08
3.76607e-09
2.44123e-10
1.04643e-22
1.00799e-21
7.7926e-21
5.75163e-20
4.20715e-19
3.0382e-18
2.49039e-17
8.99618e-16
6.95638e-14
1.2718e-12
3.52348e-12
1.28518e-10
5.52055e-09
3.90957e-06
0.00021816
0.000367955
0.000310469
4.32288e-06
3.44829e-06
5.03126e-06
1.84785e-06
2.36899e-05
0.000187433
0.000340583
0.00030997
9.79656e-05
2.98753e-06
2.2328e-07
2.23296e-07
2.23322e-07
2.23422e-07
2.24725e-07
2.41045e-07
5.06959e-07
0.000351462
0.000562829
0.000469858
1.70769e-09
1.82318e-11
-1.15401e-11
6.72308e-24
9.09377e-23
9.5429e-22
9.48953e-21
1.07754e-19
2.08062e-18
1.53992e-16
1.459e-14
4.0396e-13
2.54472e-13
2.13402e-11
1.71671e-09
5.80016e-08
5.6523e-05
0.000358882
0.000368046
6.61065e-05
4.99078e-06
1.7306e-05
2.59456e-05
2.72075e-06
0.000101957
0.00048307
0.000483419
0.000483419
0.000483611
0.000454173
3.45837e-05
2.23338e-07
2.23416e-07
2.24367e-07
2.39945e-07
9.62867e-05
0.000396131
0.000557723
0.000562038
0.000400461
3.6703e-10
7.02055e-12
-1.33393e-14
2.60618e-25
5.37578e-24
7.96641e-23
1.2866e-21
5.10876e-20
5.3488e-18
6.35497e-16
3.48481e-14
2.09777e-13
6.62636e-12
1.81431e-10
7.30626e-09
2.10147e-07
0.000143618
0.000351913
0.000312874
1.28785e-05
1.17045e-05
2.96185e-05
2.55261e-05
5.24129e-07
1.77303e-05
0.000302956
0.00048222
0.000483611
0.000483802
0.000485176
0.000486539
0.000404525
0.000280351
0.000315819
0.000454153
0.000522093
0.000533553
0.000545344
0.00049123
1.77143e-05
1.37578e-08
3.6703e-10
2.96586e-06
5.04264e-27
1.75431e-25
3.47476e-24
1.47156e-22
2.33238e-20
3.82182e-18
5.12483e-16
2.76953e-14
3.54387e-13
1.31171e-11
4.13373e-10
1.23386e-08
3.60537e-07
0.000174168
0.000350816
0.000235345
1.40946e-05
1.51393e-05
2.96202e-05
2.13027e-05
4.04044e-07
1.88347e-07
4.44367e-07
2.23776e-06
3.77669e-05
0.000426907
0.000486539
0.000486539
0.000486913
0.000490868
0.000497543
0.000500586
0.000506803
0.000522307
0.00021905
4.92285e-05
9.39782e-07
3.33711e-08
1.96435e-05
5.83255e-05
3.11499e-29
6.52282e-28
3.49129e-26
8.67211e-24
1.75325e-21
2.86141e-19
9.94403e-17
9.06532e-15
2.25254e-13
9.52336e-12
3.12197e-10
1.05077e-08
2.76772e-07
0.000161355
0.000345565
0.000212101
1.42432e-05
1.41072e-05
2.48197e-05
1.8989e-05
1.88347e-07
1.21574e-07
7.22341e-08
3.83428e-07
3.2084e-06
6.97543e-05
0.000153765
0.000158742
0.000128551
0.00014462
0.00027677
0.000348422
0.000174175
6.62492e-05
6.69365e-06
3.81454e-06
2.3512e-06
1.06278e-05
2.09534e-05
8.03241e-06
2.06958e-32
2.3961e-31
1.20653e-29
1.06122e-26
7.49414e-24
4.00947e-21
1.61603e-18
4.89609e-16
3.50887e-14
2.32774e-12
8.61667e-11
3.74086e-09
1.23203e-07
0.000115777
0.000337549
0.000238521
1.41478e-05
1.42432e-05
3.5135e-05
3.82824e-05
4.95498e-06
6.45942e-08
3.33453e-10
1.4484e-08
2.46385e-06
3.01121e-05
3.76907e-05
8.33913e-06
2.35052e-06
2.54758e-06
3.50743e-06
6.70042e-06
3.30238e-06
2.40449e-06
2.60869e-06
6.46915e-06
1.30517e-06
3.02907e-06
4.16051e-06
-1.35576e-12
2.09438e-41
6.40612e-38
1.30898e-35
4.05479e-35
-2.56088e-34
-2.79622e-31
-2.38691e-28
-1.5408e-25
7.19177e-18
7.30739e-14
4.55838e-12
2.70048e-10
1.19442e-08
1.05161e-05
0.000162384
0.000221396
1.42432e-05
1.49158e-05
3.82824e-05
3.83324e-05
2.98763e-05
4.59115e-08
-6.52153e-11
-1.12166e-09
5.44584e-07
2.89317e-06
3.73519e-06
2.35052e-06
2.35052e-06
2.3482e-06
2.54758e-06
3.25779e-06
2.41207e-06
1.85016e-06
1.28481e-06
9.30273e-07
2.98679e-07
8.64326e-08
1.85405e-10
0
)
;

boundaryField
{
    leftWall
    {
        type            zeroGradient;
    }
    rightWall
    {
        type            zeroGradient;
    }
    lowerWall
    {
        type            zeroGradient;
    }
    atmosphere
    {
        type            inletOutlet;
        inletValue      uniform 0;
        value           nonuniform List<scalar> 
45
(
0
0
0
0
0
0
0
0
0
0
0
0
0
0
7.30739e-14
4.55838e-12
2.70048e-10
1.19442e-08
1.05161e-05
0.000162384
0.000221396
1.42432e-05
0
0
0
0
0
0
0
5.44584e-07
2.89317e-06
3.73519e-06
2.35052e-06
2.35052e-06
2.3482e-06
2.54758e-06
3.25779e-06
2.41207e-06
1.85016e-06
1.28481e-06
9.30273e-07
2.98679e-07
8.64326e-08
1.85405e-10
0
)
;
    }
    defaultFaces
    {
        type            empty;
    }
    procBoundary3to1
    {
        type            processor;
        value           nonuniform List<scalar> 
45
(
-2.54372e-10
-1.08337e-10
0
2.22753e-11
1.6434e-10
6.89094e-10
2.49653e-09
7.56653e-09
2.66615e-08
7.69393e-08
1.81404e-07
3.55947e-07
6.46968e-07
1.48068e-06
1.2689e-05
7.28708e-05
0.000287167
0.000124766
1.06536e-05
2.07972e-05
0.000126811
0.000127572
3.69644e-07
1.86127e-05
0.000153596
0.000170324
4.54037e-05
4.36159e-07
5.6251e-05
5.56069e-05
3.74863e-08
1.65102e-06
2.99885e-08
1.22489e-08
8.13422e-09
3.53624e-09
2.0643e-09
1.78066e-09
2.29507e-09
8.11514e-09
1.53909e-06
2.42834e-05
3.03517e-05
0.000673776
0.276746
)
;
    }
    procBoundary3to2
    {
        type            processor;
        value           nonuniform List<scalar> 
43
(
-1.86455e-10
-1.11175e-10
-6.40102e-11
-3.6682e-11
-2.13591e-11
-1.27666e-11
-7.82438e-12
-4.86124e-12
-3.00132e-12
-1.78534e-12
-9.60574e-13
-3.71495e-13
9.03946e-14
1.05757e-12
2.00449e-12
2.40926e-12
2.3591e-12
2.07026e-12
1.45295e-12
7.53091e-13
2.8203e-13
7.74813e-14
1.49966e-14
1.73855e-15
1.02225e-16
4.88958e-18
5.27472e-19
6.53478e-20
7.53197e-21
8.15581e-22
7.95693e-23
6.6899e-24
4.83384e-25
2.95499e-26
1.46253e-27
5.56349e-29
1.54989e-30
3.02538e-32
6.08561e-34
1.25693e-35
5.86963e-38
1.67925e-41
-1.72015e-67
)
;
    }
}


// ************************************************************************* //
