/*--------------------------------*- C++ -*----------------------------------*\
| =========                 |                                                 |
| \\      /  F ield         | OpenFOAM: The Open Source CFD Toolbox           |
|  \\    /   O peration     | Version:  5.0                                   |
|   \\  /    A nd           | Web:      www.OpenFOAM.org                      |
|    \\/     M anipulation  |                                                 |
\*---------------------------------------------------------------------------*/
FoamFile
{
    version     2.0;
    format      ascii;
    class       surfaceScalarField;
    location    "0.8";
    object      alphaPhi10;
}
// * * * * * * * * * * * * * * * * * * * * * * * * * * * * * * * * * * * * * //

dimensions      [0 3 -1 0 0 0 0];

internalField   nonuniform List<scalar> 
3782
(
-7.8901e-15
-5.7163e-15
-5.58397e-15
-3.959e-15
-3.65629e-15
-2.50444e-15
-2.32972e-15
-1.52991e-15
-1.48791e-15
-9.34722e-16
-9.65873e-16
-5.82385e-16
-6.37598e-16
-3.72106e-16
-4.23823e-16
-2.4243e-16
-2.79049e-16
-1.58872e-16
-1.78079e-16
-1.02614e-16
-1.06614e-16
-6.32185e-17
-5.56248e-17
-3.44685e-17
-1.80823e-17
-1.1869e-17
3.87343e-17
1.18265e-17
1.20623e-16
6.54876e-17
1.53207e-16
1.47969e-16
1.44104e-16
1.80305e-16
1.2126e-16
1.78247e-16
7.96739e-17
1.51584e-16
3.64834e-17
9.81718e-17
1.13193e-17
4.50229e-17
2.53118e-18
1.4862e-17
4.10192e-19
3.70104e-18
3.98517e-20
6.44481e-19
1.85227e-21
6.38031e-20
6.10419e-23
3.48329e-21
3.57005e-24
2.21493e-22
1.70199e-25
2.317e-23
-1.08379e-26
2.1915e-24
-3.354e-27
1.8667e-25
-4.65687e-28
1.49818e-26
-4.54433e-29
1.04688e-27
-3.37699e-30
5.96804e-29
-1.93359e-31
2.68649e-30
-8.34715e-33
9.09134e-32
-2.70759e-34
2.11265e-33
-8.06797e-36
2.86523e-35
-4.59481e-37
5.88709e-38
-6.11926e-39
-6.46374e-38
-3.46882e-41
-9.8945e-40
-3.73189e-44
-5.69414e-42
-2.16943e-57
-5.98196e-45
-2.16575e-57
-4.67759e-15
-6.23386e-15
-1.82524e-15
-2.48973e-15
1.26924e-15
1.26994e-15
2.49215e-15
5.12428e-15
-4.30061e-15
-5.90499e-15
-3.24735e-15
-4.60419e-15
-1.15208e-15
-1.69567e-15
6.77704e-16
6.62366e-16
-3.24491e-15
-4.65352e-15
-3.22775e-15
-4.82597e-15
-2.13082e-15
-3.34188e-15
-1.00501e-15
-6.05647e-16
-2.24652e-15
-3.38951e-15
-2.63269e-15
-4.17829e-15
-2.23674e-15
-3.75851e-15
-2.07056e-15
-1.15343e-15
-1.50942e-15
-2.3977e-15
-1.97173e-15
-3.31758e-15
-1.93234e-15
-3.4655e-15
-2.42513e-15
-1.25798e-15
-1.01462e-15
-1.68733e-15
-1.43007e-15
-2.52923e-15
-1.53342e-15
-2.89949e-15
-2.31463e-15
-1.13699e-15
-6.91435e-16
-1.19031e-15
-1.03219e-15
-1.89087e-15
-1.17714e-15
-2.30305e-15
-1.99309e-15
-9.49361e-16
-4.78053e-16
-8.38747e-16
-7.49817e-16
-1.39596e-15
-8.97719e-16
-1.77624e-15
-1.62379e-15
-7.70629e-16
-3.32658e-16
-5.84143e-16
-5.48217e-16
-1.01564e-15
-6.87602e-16
-1.34316e-15
-1.28459e-15
-6.2406e-16
-2.29646e-16
-3.96061e-16
-4.00002e-16
-7.22178e-16
-5.28426e-16
-9.96168e-16
-9.98823e-16
-5.08854e-16
-1.53901e-16
-2.56057e-16
-2.86679e-16
-4.94905e-16
-4.03028e-16
-7.18954e-16
-7.63123e-16
-4.15831e-16
-9.63196e-17
-1.52153e-16
-1.96605e-16
-3.1935e-16
-2.98779e-16
-4.96431e-16
-5.65635e-16
-3.34641e-16
-5.06006e-17
-7.488e-17
-1.22212e-16
-1.84381e-16
-2.07377e-16
-3.1709e-16
-3.95478e-16
-2.56757e-16
-1.10358e-17
-1.51331e-17
-5.75273e-17
-7.98103e-17
-1.23251e-16
-1.71911e-16
-2.45702e-16
-1.7633e-16
4.43925e-17
1.11955e-16
2.20049e-18
2.517e-17
-4.0315e-17
-5.09692e-17
-1.11767e-16
-8.90985e-17
1.80583e-16
2.69907e-16
1.31884e-16
2.91913e-16
6.01096e-17
2.06509e-16
8.16944e-17
9.67453e-18
3.43663e-16
2.94902e-16
4.28885e-16
5.29261e-16
3.82025e-16
6.12698e-16
5.56606e-16
2.7049e-16
3.78042e-16
2.70051e-16
6.80897e-16
5.22388e-16
9.24078e-16
8.64248e-16
1.18932e-15
1.02516e-15
3.56294e-16
2.0537e-16
7.04198e-16
4.45891e-16
1.19987e-15
8.04678e-16
1.27325e-15
1.85007e-15
2.7017e-16
1.13087e-16
6.11944e-16
2.9285e-16
1.16255e-15
6.24684e-16
1.12744e-15
1.96768e-15
1.46481e-16
4.12791e-17
3.94402e-16
1.27602e-16
8.90812e-16
3.33086e-16
7.25932e-16
1.72769e-15
5.51705e-17
1.04426e-17
1.70973e-16
3.60428e-17
4.57135e-16
1.08256e-16
2.80624e-16
1.05851e-15
1.5681e-17
2.02913e-18
5.33271e-17
7.76825e-18
1.5628e-16
2.47782e-17
6.79191e-17
4.07438e-16
3.43541e-18
2.73554e-19
1.36146e-17
1.32656e-18
4.35731e-17
4.91033e-18
1.42572e-17
1.1797e-16
4.77235e-19
1.87226e-20
2.49841e-18
1.30275e-19
9.90398e-18
6.61536e-19
2.43742e-18
3.05442e-17
3.41231e-20
6.51434e-22
2.4193e-19
5.56294e-21
1.30341e-18
3.83611e-20
1.97395e-19
5.26417e-18
1.93498e-21
3.18234e-23
1.38979e-20
2.35401e-22
8.6125e-20
1.51092e-21
7.94923e-21
4.35025e-19
2.00396e-22
1.9401e-24
1.39812e-21
1.66591e-23
8.13152e-21
1.11902e-22
5.52229e-22
3.81259e-20
2.05174e-23
-4.39225e-26
1.69779e-22
-7.20707e-26
1.14683e-21
1.26985e-24
1.2564e-23
5.79598e-21
1.76302e-24
-2.42566e-26
1.73029e-23
-2.22943e-25
1.38723e-22
-1.78307e-24
-1.01003e-23
7.89095e-22
1.43174e-25
-3.74476e-27
1.66542e-24
-4.44364e-26
1.55881e-23
-4.44976e-25
-2.94253e-24
9.80889e-23
1.04674e-26
-3.84529e-28
1.48577e-25
-5.76532e-27
1.65419e-24
-7.28819e-26
-5.79689e-25
1.17685e-23
6.16231e-28
-2.82829e-29
1.08956e-26
-5.10682e-28
1.51668e-25
-8.55039e-27
-8.88376e-26
1.29508e-24
2.73027e-29
-1.5527e-30
5.80025e-28
-3.03631e-29
1.07169e-26
-6.9695e-28
-1.04858e-26
1.20228e-25
8.87074e-31
-6.43769e-32
2.04729e-29
-1.15631e-30
5.21849e-28
-3.57368e-29
-8.81061e-28
8.53595e-27
1.99272e-32
-2.06209e-33
4.24696e-31
-2.69268e-32
1.46696e-29
-8.9368e-31
-4.42152e-29
3.94299e-28
2.7233e-34
-7.28539e-35
4.2351e-33
-5.31999e-34
1.57443e-31
-3.9645e-33
-7.68613e-31
8.36899e-30
1.03825e-36
-4.56731e-36
9.1761e-36
-1.12549e-35
6.78363e-35
-6.1021e-36
-3.75095e-33
8.90766e-33
-3.47205e-37
-4.57544e-38
-2.11306e-37
-1.07941e-37
-5.71455e-36
-2.86918e-37
-1.19972e-34
-3.63137e-33
-3.95242e-39
-2.70459e-40
-3.50358e-39
-6.41401e-40
-3.20642e-37
-6.94525e-39
-3.94699e-36
-1.16219e-34
-2.23735e-41
-4.5161e-43
-2.12126e-41
-1.19379e-42
-7.14981e-39
-2.94337e-41
-1.79786e-38
-5.45089e-36
-2.84306e-44
-6.20925e-54
-2.70924e-44
-1.48797e-50
-2.94609e-41
-3.10505e-47
-5.36765e-44
-8.77481e-39
-6.21141e-54
-1.48859e-50
-3.10654e-47
-5.37075e-44
2.48919e-14
3.46028e-15
9.01141e-14
1.21807e-14
2.29427e-13
1.82886e-14
6.14837e-13
4.49089e-14
1.29817e-12
8.11954e-14
1.89813e-12
5.05789e-14
2.08455e-12
7.42705e-14
1.52786e-12
3.74317e-12
-4.95259e-13
3.9048e-11
-1.12215e-09
1.63845e-09
-2.94371e-09
9.1353e-09
-2.07409e-09
8.64382e-09
-3.59264e-10
1.13856e-09
-2.88364e-10
1.59201e-10
-2.20996e-09
8.96876e-10
-1.25308e-09
2.40096e-09
-1.36763e-10
2.79246e-10
-3.32413e-11
8.0299e-12
-6.45128e-11
5.25187e-13
-3.19921e-11
1.94551e-12
-9.69691e-14
1.78219e-13
-9.69787e-14
-2.95959e-14
-1.04615e-13
-7.3079e-14
-1.95012e-13
-1.57191e-13
-1.17732e-12
-8.61547e-13
-1.66493e-12
-5.75813e-12
-5.78772e-12
3.49782e-12
-2.79232e-11
9.09304e-12
-1.842e-11
-1.75033e-11
-4.9156e-12
-1.77963e-11
-1.02781e-12
-4.92679e-12
-1.41682e-13
-1.31295e-12
-5.07191e-14
-3.08735e-13
4.05604e-13
-1.41118e-12
1.47789e-11
-3.20153e-11
4.24799e-10
-5.56894e-10
-6.9197e-11
-2.39731e-08
2.15903e-08
-1.09432e-07
8.68394e-07
-1.18093e-06
-9.80446e-05
2.65222e-15
1.649e-15
1.10133e-14
3.5009e-15
2.73179e-14
5.42317e-15
6.79823e-14
1.45703e-14
1.29342e-13
1.85783e-14
1.74686e-13
1.67846e-14
2.40298e-13
2.37439e-13
-3.27119e-13
4.11118e-12
-2.04155e-11
1.80543e-10
-3.308e-09
9.94209e-09
-4.4326e-09
1.12227e-08
-1.24492e-09
6.38459e-09
-3.03935e-10
1.76029e-10
-4.57776e-10
2.76413e-10
-1.08845e-09
5.85745e-10
-2.68821e-10
2.59333e-10
-9.63934e-12
1.93616e-11
-2.2015e-12
5.69947e-13
-2.18714e-12
4.70019e-14
-2.80549e-13
-2.26582e-13
-1.14756e-13
1.24146e-14
-1.14094e-13
-3.35753e-14
-1.14278e-13
-7.72017e-14
-1.72225e-13
-1.05762e-13
-3.65193e-13
-7.35663e-13
-2.11932e-11
-7.43595e-12
-6.38249e-11
-1.69157e-10
-2.33523e-10
-2.12562e-10
-1.21148e-10
-1.54346e-09
-3.30468e-11
-1.35649e-10
-7.81177e-12
-3.58204e-11
-9.39072e-13
-9.17582e-12
-1.42017e-13
-1.39148e-12
-9.72286e-13
-2.47992e-12
4.32534e-12
-4.08147e-11
6.29586e-10
-1.21593e-09
1.26475e-09
-2.66374e-08
1.22461e-09
-7.84323e-07
1.27935e-06
-4.76781e-06
-9.82086e-05
5.58449e-16
4.84902e-16
2.53149e-15
1.79383e-15
5.12797e-15
5.65618e-15
1.08063e-14
1.25275e-14
1.65194e-14
1.42143e-14
3.06652e-14
1.03726e-14
1.41011e-13
1.43815e-13
-3.52172e-12
7.87722e-12
-1.45666e-09
2.52801e-09
-3.41308e-09
1.24415e-08
-3.34223e-09
1.20066e-08
-3.55077e-10
2.04885e-09
-2.56822e-10
6.09666e-11
-4.57366e-10
2.83825e-10
-2.3849e-10
1.77996e-10
-1.6907e-11
3.84312e-11
-6.29011e-13
3.02582e-12
-4.25073e-13
3.65526e-13
-2.40816e-13
-5.74036e-15
-1.2855e-13
4.82716e-14
-1.9975e-13
5.4307e-15
-2.00074e-13
-1.91895e-13
-1.30799e-13
-2.41824e-13
-2.04266e-13
-1.09805e-13
-3.01287e-13
-7.80751e-13
5.41149e-12
-1.42159e-11
-2.96141e-10
-3.762e-10
-1.79864e-09
-4.02628e-09
-2.34879e-09
-7.20652e-09
-5.52199e-10
-7.28266e-09
-5.48883e-11
-1.17959e-09
-7.61025e-12
-6.29843e-11
-1.19257e-12
-8.75877e-12
-3.15037e-12
-4.20568e-12
-1.15931e-11
-3.63005e-11
1.42035e-10
-1.3883e-09
2.62054e-08
-3.9354e-08
1.09707e-07
-1.39268e-06
-7.977e-07
-6.59559e-06
-3.18881e-05
-1.65346e-16
-3.62024e-16
1.16687e-15
8.81718e-16
3.29997e-15
5.71675e-15
5.12783e-15
1.32027e-14
4.44063e-15
1.52662e-14
5.44549e-15
7.90882e-15
1.19895e-13
3.17359e-14
-6.1313e-12
1.41452e-11
-2.09675e-09
8.21296e-09
-3.36159e-09
1.41769e-08
-1.47625e-09
1.06693e-08
-1.41234e-10
5.73802e-10
-1.46782e-10
4.63019e-11
-2.30433e-10
1.06873e-10
-3.63834e-11
7.81981e-12
-1.07479e-12
3.1926e-12
-3.23881e-13
2.28872e-12
-7.44894e-13
7.25627e-13
-2.24516e-13
6.36132e-13
-2.15492e-13
6.78003e-14
-8.37089e-13
-8.4525e-15
-1.34696e-12
-4.68976e-13
-6.08878e-13
-8.94552e-13
-6.82766e-14
-6.87764e-13
-3.85737e-13
-5.98843e-13
-9.09095e-12
-6.14812e-12
-1.16007e-09
-2.15604e-10
-2.4549e-09
-6.83222e-09
-2.30981e-09
-7.34698e-09
-1.46153e-09
-8.0473e-09
-6.8774e-10
-8.3391e-09
-4.43278e-11
-2.05081e-09
-3.94853e-12
-4.96582e-11
-1.36382e-12
-1.27397e-11
-2.40482e-11
-4.64963e-11
-7.0418e-10
-7.05135e-10
1.68636e-08
-5.68009e-08
-2.71631e-07
-1.55212e-06
-8.6489e-07
-3.08032e-06
-1.16837e-13
-3.87798e-16
-9.1664e-16
7.13771e-16
3.76428e-16
2.89359e-15
5.25122e-15
4.21218e-15
1.29733e-14
3.31487e-15
1.47327e-14
1.94881e-15
6.17794e-15
2.84556e-14
5.36603e-15
-1.4018e-11
3.26527e-11
-1.40094e-09
9.29235e-09
-2.08117e-09
1.53322e-08
-5.42942e-10
5.81709e-09
-4.13295e-11
9.62302e-11
-3.32628e-11
8.2806e-11
-1.93174e-11
3.98725e-11
-7.43616e-12
1.50294e-11
-1.07346e-11
2.42038e-11
-1.61413e-11
5.24086e-11
-3.68402e-13
4.69767e-11
-2.57336e-13
3.55806e-13
-3.37992e-13
6.40716e-14
-1.11723e-12
-3.98963e-14
-1.0528e-12
-5.203e-13
-9.84212e-13
-9.49648e-13
-4.26348e-13
-1.29509e-12
-8.69774e-13
-1.34442e-12
-6.46348e-12
-2.7365e-13
-1.3093e-10
-7.25465e-12
-1.32663e-09
-1.51491e-09
-1.49488e-09
-7.10074e-09
-1.34843e-09
-8.13303e-09
-8.1914e-10
-8.7826e-09
-2.89929e-10
-9.38892e-09
-1.55004e-11
-3.70569e-10
-2.7377e-12
-3.98931e-11
-1.99857e-11
-4.84419e-11
-7.49019e-10
8.55948e-12
-7.1884e-08
-4.88715e-08
-8.74373e-08
-2.75002e-07
-1.16565e-14
-1.39616e-11
-2.09005e-13
-4.52445e-16
-1.12787e-15
4.91794e-16
2.20022e-16
2.45871e-15
4.33672e-15
3.63093e-15
1.10361e-14
2.98315e-15
1.19777e-14
9.33109e-16
4.1854e-15
3.93978e-15
2.02834e-15
2.85634e-11
4.09323e-12
-2.34473e-10
5.42035e-09
-3.35345e-10
1.59124e-08
-1.43715e-10
2.28275e-11
-2.47561e-11
6.89163e-11
-8.77056e-12
1.49124e-10
-6.3675e-12
3.94402e-11
-5.88862e-12
2.16378e-11
-2.42239e-11
3.63919e-11
-3.72494e-11
6.88733e-11
-3.94471e-11
5.33044e-11
-1.54637e-13
1.40512e-11
-3.00218e-13
4.80463e-14
-4.8799e-13
-1.10358e-14
-5.41928e-13
-4.53083e-13
-6.11944e-13
-8.67902e-13
-5.07428e-13
-1.38377e-12
-1.62776e-13
-1.99197e-12
-1.24674e-13
-2.61308e-13
-7.34195e-12
-3.2077e-14
-1.44498e-10
-2.49625e-14
-3.57861e-10
-2.63392e-14
-3.06334e-10
-8.09797e-09
-8.56756e-11
-8.95182e-09
1.96102e-10
-9.61017e-09
-1.31083e-11
-5.29072e-09
-7.60022e-12
-7.79284e-10
5.12784e-12
-3.67191e-11
-6.91412e-13
-7.74187e-12
-4.84411e-11
-3.00898e-08
-2.09255e-13
-1.56795e-09
-9.74081e-15
-1.42326e-11
-2.88346e-13
-4.36361e-16
-1.11308e-15
1.81491e-16
3.84983e-17
1.92731e-15
3.08034e-15
2.69293e-15
7.76542e-15
1.78366e-15
7.81352e-15
6.16226e-16
2.07822e-15
9.34063e-16
1.51294e-15
1.37948e-11
1.00841e-12
4.34349e-10
1.0053e-11
1.2687e-10
5.92915e-11
-1.20732e-11
-2.14235e-11
-1.90702e-11
1.60638e-10
-2.41889e-11
1.88698e-10
-4.03171e-12
1.60535e-10
-4.66089e-12
1.73755e-11
-1.76638e-11
2.17578e-11
-1.68033e-11
7.14818e-11
-6.6144e-12
4.65821e-11
-3.28754e-12
4.78016e-12
-2.23095e-14
5.1381e-13
-6.79773e-14
-1.70277e-14
-3.53884e-14
-5.88115e-14
-7.27343e-14
-9.98955e-15
-6.4134e-14
-9.40559e-13
1.36724e-15
-9.19192e-13
4.17025e-15
-1.62281e-13
7.16387e-16
-2.34884e-14
9.91865e-16
-2.00407e-14
2.22493e-15
-2.24375e-14
7.85953e-10
-1.49896e-13
1.11706e-09
-9.19821e-09
1.44669e-09
-9.88789e-09
7.81703e-10
-1.00649e-08
-1.21005e-10
-3.24305e-09
1.74684e-11
-1.60841e-10
2.11524e-11
-1.14259e-11
1.57748e-09
-6.44726e-12
1.44919e-11
4.039e-13
1.52806e-13
2.75063e-14
-8.3492e-14
-3.92953e-16
-9.93189e-16
-2.66131e-17
-7.28338e-17
1.24407e-15
1.742e-15
1.55173e-15
3.2942e-15
1.39706e-15
5.16399e-15
6.74578e-16
2.23931e-15
4.33567e-16
1.44309e-15
1.76164e-11
6.42675e-12
7.82305e-11
-1.45709e-11
5.94928e-11
4.15677e-11
6.38599e-12
4.44625e-12
1.56804e-11
7.07926e-11
1.46735e-11
1.99649e-10
8.35286e-12
1.75488e-10
-2.25314e-13
3.55652e-11
1.77797e-12
3.46963e-12
3.5908e-12
7.05652e-13
3.51768e-12
4.83292e-13
-2.07038e-13
1.36391e-14
-9.72877e-16
8.4144e-15
1.85789e-14
-6.72568e-14
2.9682e-15
-4.24383e-14
2.06426e-15
-9.08806e-15
5.80474e-14
-1.12143e-14
3.65767e-14
-9.26765e-15
1.23398e-14
-9.26777e-15
3.43013e-15
-1.38942e-14
3.39723e-15
-1.40455e-14
6.47979e-15
-2.01741e-14
5.00541e-14
-1.8678e-13
2.19017e-09
-3.91702e-09
2.3031e-09
-9.91531e-09
2.94446e-09
-1.03446e-08
-2.7139e-12
-4.02319e-09
5.071e-12
-1.73838e-10
5.07662e-12
-1.14096e-11
3.21018e-13
-1.69651e-12
-7.009e-14
-2.52267e-14
-2.96611e-15
4.4661e-15
-1.71302e-13
-3.48359e-16
-8.46719e-16
-5.76769e-17
-1.487e-16
7.12051e-16
5.64651e-16
8.42949e-16
2.08262e-15
1.07545e-13
3.30068e-13
1.48457e-14
6.67314e-14
1.25649e-14
3.4043e-15
7.17527e-12
5.40611e-11
1.96852e-11
2.4789e-11
2.04456e-11
2.87295e-11
7.96569e-12
1.34772e-11
1.90417e-11
2.34369e-11
5.29369e-11
1.74467e-10
5.31903e-11
1.83947e-10
1.76511e-12
4.89175e-11
1.83919e-13
1.67945e-12
4.00864e-13
1.45954e-13
4.48604e-13
5.6853e-14
3.57785e-13
-7.12873e-14
2.55422e-13
7.3657e-14
1.7622e-13
-1.13206e-13
6.18035e-15
-6.14238e-14
6.87712e-15
-1.08564e-14
4.50423e-15
-9.8092e-15
4.46125e-15
-1.00343e-14
4.54563e-15
-1.00553e-14
5.76485e-15
-9.69753e-15
6.23332e-15
-8.67193e-15
3.42895e-14
-4.16324e-14
1.2669e-12
-1.40095e-12
1.86469e-09
-6.24809e-12
3.79675e-09
-1.04752e-08
2.67251e-09
-8.52258e-09
1.33563e-10
-1.37174e-09
9.59363e-12
-5.5074e-11
1.65303e-12
-2.9092e-12
2.1686e-13
-2.96567e-13
4.79786e-15
-1.75422e-14
-4.47992e-16
-2.36998e-14
-1.88518e-13
-3.11444e-16
-7.10088e-16
-7.99536e-17
-1.89549e-16
1.81767e-16
1.34413e-16
2.03686e-15
3.16356e-16
9.40029e-14
2.35577e-13
8.44477e-15
1.3419e-13
4.34284e-15
6.92679e-15
3.60355e-11
1.58477e-10
1.37723e-11
1.1265e-10
6.15585e-12
3.28649e-11
5.43714e-12
1.2556e-11
1.81306e-11
8.63945e-12
1.01033e-10
4.4587e-11
4.27934e-11
6.29342e-11
-2.07476e-13
2.30454e-11
1.57696e-13
9.6788e-13
7.58897e-14
9.97422e-14
8.23206e-14
2.58391e-14
2.64367e-13
2.76022e-14
5.73775e-13
2.48224e-14
2.86143e-13
-1.0799e-14
1.35273e-14
-9.17e-15
8.35881e-15
-1.27799e-14
9.21952e-15
-1.66124e-14
7.81422e-15
-1.60398e-14
6.30003e-15
-1.12558e-14
5.55692e-15
-8.06984e-15
9.22153e-15
-8.25215e-15
1.68267e-13
-1.95452e-13
1.46974e-12
-2.58216e-12
1.06127e-11
-1.57858e-11
1.72921e-09
-5.01465e-11
1.1237e-09
-1.25885e-11
5.82149e-11
-2.60862e-12
3.83948e-12
-3.87123e-13
3.52039e-13
-7.54666e-14
3.60913e-14
-3.46432e-14
3.50983e-15
-3.71586e-14
3.02674e-15
-4.93152e-14
-1.80274e-13
-2.81793e-16
-5.9142e-16
-9.5175e-17
-2.04065e-16
5.14359e-17
5.71266e-17
3.94305e-16
9.13699e-17
2.10553e-13
3.12187e-14
1.45411e-11
5.52166e-12
5.45618e-11
1.26574e-10
7.05393e-11
1.42635e-10
4.84045e-11
1.39563e-10
1.90259e-11
1.02786e-10
4.67889e-12
2.47794e-11
3.51872e-12
6.41556e-12
1.36472e-11
8.7872e-12
1.30087e-11
1.47841e-12
3.14287e-12
-7.7436e-13
3.91071e-14
8.7085e-13
5.97257e-14
5.43125e-14
4.36553e-14
1.9806e-14
3.65511e-14
9.16827e-15
3.73879e-14
1.28413e-15
2.89512e-14
-6.25422e-15
2.8475e-14
-1.25826e-14
2.8591e-14
-1.71746e-14
2.38004e-14
-1.86761e-14
1.50978e-14
-1.62312e-14
8.27816e-15
-1.022e-14
7.96705e-15
-7.52953e-15
9.49448e-15
-8.1601e-15
1.00426e-12
-1.42066e-12
7.30841e-12
-8.53698e-12
9.86729e-12
-1.98895e-11
4.65061e-12
-3.27142e-11
1.10889e-12
-8.21134e-12
1.71487e-13
-1.69357e-12
3.34583e-14
-2.66368e-13
1.37171e-14
-7.00793e-14
1.02522e-14
-4.25265e-14
8.87549e-15
-4.98992e-14
9.10622e-15
-6.94844e-14
-1.86665e-13
-2.54156e-16
-4.84598e-16
-1.05266e-16
-2.02026e-16
3.22763e-17
3.72323e-17
1.79993e-16
6.43029e-17
2.77339e-14
3.78104e-15
2.91716e-11
4.02513e-12
7.90073e-11
1.0426e-10
8.70817e-11
1.36725e-10
8.70598e-11
1.42923e-10
6.34987e-11
1.30462e-10
3.24856e-11
1.02322e-10
3.7538e-12
2.97581e-11
2.42735e-12
5.55126e-12
1.58349e-12
6.21093e-13
4.32317e-13
1.38943e-13
2.17153e-13
5.37113e-14
4.29152e-14
4.49915e-14
4.9244e-14
2.23928e-14
5.0286e-14
1.08833e-14
5.07372e-14
2.4066e-15
5.03602e-14
-6.63592e-15
4.74473e-14
-1.43031e-14
3.98455e-14
-1.73235e-14
2.94007e-14
-1.7038e-14
1.76627e-14
-1.30165e-14
9.7758e-15
-7.6423e-15
9.20808e-15
-7.29992e-15
1.12064e-14
-8.03705e-15
3.38479e-11
-2.27341e-11
9.37389e-11
-1.51185e-10
6.14537e-11
-2.22406e-10
2.50927e-12
-4.70534e-11
1.19076e-13
-7.49393e-12
2.31638e-14
-1.83302e-12
1.2537e-14
-2.78916e-13
1.50016e-14
-7.11437e-14
1.32137e-14
-4.53406e-14
1.14658e-14
-4.77941e-14
1.14757e-14
-7.8173e-14
-2.29742e-13
-2.21094e-16
-3.79727e-16
-1.10029e-16
-1.87939e-16
3.67488e-17
2.34786e-17
1.0676e-16
7.27123e-17
3.60837e-15
3.21992e-16
3.74436e-12
2.80591e-13
7.70369e-11
2.33006e-11
9.91774e-11
1.13884e-10
1.05387e-10
1.37546e-10
1.08429e-10
1.30789e-10
9.31825e-11
1.21207e-10
2.926e-11
9.27821e-11
1.0371e-12
3.05719e-11
2.50455e-13
1.16737e-12
1.02795e-13
2.18628e-13
8.12819e-14
6.08294e-14
8.29753e-14
3.62938e-14
8.4381e-14
2.50052e-14
8.49221e-14
1.41169e-14
8.40585e-14
2.69123e-15
7.66039e-14
-7.67369e-15
6.06988e-14
-1.44705e-14
4.13039e-14
-1.58942e-14
2.62587e-14
-1.39302e-14
1.4826e-14
-1.02249e-14
1.12211e-14
-6.94121e-15
1.11906e-14
-7.13042e-15
1.12494e-14
-7.85406e-15
1.46795e-10
-9.78294e-11
1.85363e-10
-1.82179e-10
1.86928e-10
-2.20756e-10
2.87061e-11
-2.37384e-10
-4.56988e-12
-7.12909e-11
-5.51876e-13
-7.20698e-12
-3.3018e-14
-8.02969e-13
2.48173e-14
-1.04319e-13
1.36967e-14
-4.09597e-14
1.11678e-14
-4.3844e-14
1.39424e-14
-8.37957e-14
-2.24163e-13
-1.75161e-16
-2.69584e-16
-1.04107e-16
-1.57838e-16
3.42094e-17
5.35934e-18
9.67348e-17
9.4909e-17
4.39422e-16
1.29896e-16
2.38439e-13
3.02039e-14
2.22252e-11
1.58746e-12
8.12345e-11
1.27248e-11
1.18377e-10
9.99366e-11
1.26572e-10
1.2419e-10
1.31567e-10
1.20497e-10
1.23299e-10
1.05211e-10
9.36879e-12
5.61001e-11
5.85456e-13
3.60847e-12
1.61231e-13
5.46481e-13
1.11285e-13
9.641e-14
1.04044e-13
3.95992e-14
1.09538e-13
2.39278e-14
1.11473e-13
1.30772e-14
1.06829e-13
2.09696e-15
8.97186e-14
-7.57291e-15
6.18516e-14
-1.20039e-14
3.83183e-14
-1.12659e-14
2.451e-14
-9.81071e-15
1.48561e-14
-8.01152e-15
1.2319e-14
-6.412e-15
1.27563e-14
-6.80017e-15
1.25082e-14
-7.59537e-15
2.01678e-10
-1.47842e-10
2.1426e-10
-1.91517e-10
2.11305e-10
-2.12904e-10
2.02107e-10
-2.2052e-10
5.20753e-13
-1.06953e-10
1.09591e-13
-7.89559e-12
4.25526e-14
-8.25827e-13
2.66106e-14
-9.83936e-14
1.2499e-14
-3.03823e-14
1.13765e-14
-3.79907e-14
1.5825e-14
-8.54384e-14
-1.98064e-13
-1.10574e-16
-1.52044e-16
-7.85412e-17
-1.05592e-16
-9.00921e-18
-1.17604e-17
7.66652e-17
8.59092e-17
1.75017e-16
9.72741e-17
2.69661e-14
3.1364e-15
1.46599e-12
1.79977e-13
1.29853e-11
1.02991e-12
8.65418e-11
3.47567e-12
1.10015e-10
2.12316e-11
1.39792e-10
9.49343e-11
1.46522e-10
1.00847e-10
4.9764e-12
2.44859e-11
3.4894e-13
3.15525e-12
1.62211e-13
5.46956e-13
1.21446e-13
1.03033e-13
1.12177e-13
3.61666e-14
1.17311e-13
2.01851e-14
1.16672e-13
1.02454e-14
1.03652e-13
1.16992e-15
7.56559e-14
-4.73831e-15
4.54673e-14
-6.05804e-15
2.81269e-14
-5.56e-15
2.03874e-14
-5.70369e-15
1.50397e-14
-5.99774e-15
1.32407e-14
-5.89699e-15
1.38256e-14
-6.36497e-15
1.4379e-14
-7.3741e-15
2.29104e-10
-5.67737e-11
2.34676e-10
-1.87843e-10
2.25261e-10
-2.00214e-10
1.92808e-10
-1.8666e-10
5.67093e-12
-5.66079e-11
5.18589e-13
-3.39685e-12
6.68698e-14
-3.93797e-13
1.87635e-14
-5.05692e-14
1.01093e-14
-2.04787e-14
1.20865e-14
-3.29167e-14
1.65447e-14
-8.37138e-14
-1.42898e-13
-2.43072e-17
-2.98069e-17
-2.7037e-17
-3.22263e-17
-5.97558e-19
-6.87675e-19
8.55177e-17
8.29597e-17
1.17392e-16
1.03754e-16
2.60059e-15
2.3599e-16
1.72614e-13
1.3849e-14
1.08453e-12
1.06369e-13
3.96842e-12
4.58791e-13
1.68123e-11
1.15641e-12
4.30529e-11
2.08843e-12
3.29057e-11
-2.27564e-13
5.93846e-12
-1.64835e-12
-8.13708e-14
2.31135e-12
1.10795e-13
2.93983e-13
1.03934e-13
7.02843e-14
9.80293e-14
2.48198e-14
9.51534e-14
1.22394e-14
8.42807e-14
5.07892e-15
6.2585e-14
2.66928e-16
3.8859e-14
-1.66274e-15
2.3042e-14
-2.08514e-15
1.72733e-14
-2.50699e-15
1.57099e-14
-3.13866e-15
1.46957e-14
-4.04082e-15
1.37973e-14
-4.92476e-15
1.48975e-14
-6.1927e-15
1.77883e-14
-9.23521e-15
1.69436e-10
-2.48223e-13
2.50266e-10
-1.89261e-10
2.23496e-10
-1.64112e-10
7.63762e-11
-1.16809e-10
2.79575e-12
-7.36823e-12
3.4823e-13
-8.48687e-13
4.04136e-14
-8.95359e-14
1.13758e-14
-1.96144e-14
8.13113e-15
-1.53787e-14
1.30993e-14
-3.06213e-14
1.58611e-14
-7.82138e-14
-9.89695e-14
1.47584e-16
4.17976e-16
9.55333e-17
2.58891e-16
9.20423e-17
1.727e-16
1.36904e-16
1.64965e-16
1.61162e-16
1.80425e-16
3.27356e-16
1.92974e-16
1.35398e-14
1.3162e-15
1.09776e-13
8.35602e-15
5.28852e-13
3.37225e-14
1.57275e-12
8.2935e-14
3.29524e-12
1.5025e-13
2.7704e-12
3.5701e-14
1.04345e-12
-9.58088e-14
1.3736e-12
-4.518e-14
3.02268e-13
1.75458e-13
9.54921e-14
6.75569e-14
6.82967e-14
1.86274e-14
5.06851e-14
5.51842e-15
3.51667e-14
1.46211e-15
2.2755e-14
-8.07454e-18
1.47613e-14
-4.94543e-16
1.16711e-14
-9.45945e-16
1.13467e-14
-1.4672e-15
1.18224e-14
-2.21337e-15
1.33194e-14
-3.25253e-15
1.42596e-14
-4.40769e-15
1.64458e-14
-6.81778e-15
3.96135e-14
-3.10859e-14
1.54147e-12
-1.7477e-12
2.38153e-10
-4.44249e-11
1.42773e-10
-1.23513e-11
7.88017e-12
-1.64313e-12
9.21874e-13
-1.5366e-13
8.84875e-14
-2.45359e-14
1.53044e-14
-1.20334e-14
8.90292e-15
-1.18034e-14
7.7799e-15
-1.26512e-14
1.54247e-14
-3.01952e-14
1.46061e-14
-6.79944e-14
-7.22953e-14
8.33106e-16
1.37231e-15
6.32295e-16
1.12523e-15
4.91981e-16
8.55018e-16
4.21091e-16
6.40157e-16
4.23511e-16
5.16778e-16
5.23618e-16
5.38541e-16
1.60224e-15
8.39739e-16
9.12429e-15
1.52474e-15
3.97882e-14
4.56361e-15
1.07424e-13
1.14965e-14
2.37557e-13
1.33604e-14
2.48836e-13
6.12097e-15
1.43705e-13
-2.04408e-15
8.93156e-14
2.47126e-15
1.26102e-13
5.03822e-15
8.22781e-14
6.82698e-15
3.95202e-14
4.5516e-15
2.02887e-14
1.55269e-15
1.1705e-14
4.53801e-16
9.57525e-15
-6.36462e-17
8.77369e-15
-5.16147e-16
8.67604e-15
-1.74808e-15
9.38004e-15
-2.96222e-15
1.12503e-14
-4.29339e-15
1.49197e-14
-6.38332e-15
2.46078e-14
-1.40211e-14
6.75843e-14
-4.93493e-14
4.42579e-13
-4.03574e-13
5.50541e-12
-3.0552e-13
1.42056e-11
-4.07027e-13
1.80985e-12
-7.49313e-14
1.83555e-13
-1.95136e-14
3.19951e-14
-1.01345e-14
1.30317e-14
-9.18889e-15
1.0236e-14
-9.38189e-15
8.89038e-15
-9.83492e-15
8.053e-15
-1.0564e-14
1.74555e-14
-2.65228e-14
1.37207e-14
-5.55163e-14
-5.49581e-14
2.32673e-15
2.25729e-15
2.22496e-15
2.67535e-15
1.95176e-15
2.58204e-15
1.66558e-15
2.19853e-15
1.44816e-15
1.79365e-15
1.44675e-15
1.46419e-15
1.75928e-15
1.28705e-15
2.75181e-15
1.33905e-15
5.90611e-15
2.02751e-15
1.35825e-14
2.91095e-15
2.36928e-14
3.20107e-15
2.61475e-14
3.98263e-15
2.24461e-14
3.99923e-15
2.18412e-14
4.01214e-15
1.92233e-14
3.44196e-15
1.65563e-14
2.70695e-15
1.30164e-14
1.77053e-15
9.88505e-15
8.17485e-16
9.32134e-15
2.64307e-16
8.95745e-15
-4.52955e-16
9.94631e-15
-2.25821e-15
1.57792e-14
-7.82542e-15
4.71362e-14
-2.72365e-14
7.90159e-14
-5.83549e-14
1.12064e-13
-6.52764e-14
2.89696e-13
-2.07383e-13
7.51489e-13
-5.40901e-13
1.0162e-12
-3.05813e-13
4.2855e-13
-2.12552e-13
8.42872e-14
-7.3024e-14
2.70727e-14
-1.90378e-14
1.64219e-14
-9.27488e-15
1.38401e-14
-7.82946e-15
1.21181e-14
-7.738e-15
1.04867e-14
-7.85707e-15
9.21079e-15
-8.06165e-15
8.29419e-15
-8.48621e-15
1.72266e-14
-2.0698e-14
1.3538e-14
-4.25735e-14
-4.05353e-14
3.33585e-15
2.08709e-15
4.97443e-15
3.26744e-15
5.82462e-15
4.97615e-15
5.60694e-15
5.54898e-15
5.13589e-15
5.19975e-15
4.71173e-15
4.56917e-15
4.40114e-15
3.86379e-15
4.40538e-15
3.05524e-15
5.34632e-15
2.66988e-15
7.02178e-15
2.58479e-15
9.28009e-15
2.98154e-15
1.19781e-14
3.39433e-15
1.44193e-14
3.55973e-15
1.64207e-14
3.52733e-15
1.71059e-14
3.05029e-15
1.72269e-14
2.37179e-15
1.73658e-14
1.76364e-15
1.81545e-14
1.05705e-15
2.30292e-14
2.88988e-16
4.40668e-14
-5.27245e-16
1.994e-13
-1.28305e-14
8.11138e-13
-1.50919e-13
1.42869e-12
-2.81108e-13
1.43936e-12
-3.74286e-13
1.61515e-12
-4.63599e-13
1.96772e-12
-5.33816e-13
2.01836e-12
-5.87354e-13
9.28998e-13
-5.93938e-13
7.04381e-14
-2.72372e-13
2.92097e-14
-4.4908e-14
1.95894e-14
-1.51109e-14
1.61269e-14
-8.69406e-15
1.4313e-14
-6.76451e-15
1.25987e-14
-6.30555e-15
1.10784e-14
-6.21413e-15
9.7465e-15
-6.3327e-15
8.54873e-15
-6.42168e-15
1.68745e-14
-1.19452e-14
1.37419e-14
-2.95055e-14
-2.67082e-14
3.23047e-15
1.58558e-15
5.64491e-15
2.88172e-15
9.69958e-15
4.8254e-15
1.34985e-14
7.42321e-15
1.47907e-14
9.95509e-15
1.50361e-14
1.05319e-14
1.48957e-14
1.01207e-14
1.4156e-14
9.19878e-15
1.33819e-14
7.81592e-15
1.37814e-14
6.63145e-15
1.52925e-14
6.02434e-15
1.78689e-14
5.62745e-15
2.16951e-14
5.51232e-15
2.63581e-14
5.44273e-15
2.84409e-14
4.77304e-15
2.91168e-14
3.2911e-15
2.50393e-14
1.79829e-15
2.16591e-14
6.87391e-16
2.16223e-14
-4.18948e-17
1.45982e-13
-2.54448e-14
2.20018e-12
-1.28935e-13
2.53628e-12
-2.16959e-13
2.55957e-12
-2.95219e-13
2.56092e-12
-3.6944e-13
2.53359e-12
-4.3088e-13
2.48455e-12
-4.79669e-13
2.41361e-12
-5.1253e-13
1.99695e-12
-4.53688e-13
1.70935e-13
-1.83639e-13
3.00483e-14
-2.47013e-14
2.60815e-14
-1.08914e-14
1.97537e-14
-7.52889e-15
1.54282e-14
-5.72201e-15
1.343e-14
-4.82531e-15
1.17189e-14
-4.49348e-15
1.02665e-14
-4.30967e-15
8.79042e-15
-4.12989e-15
1.30258e-14
-5.04845e-15
1.37922e-14
-1.55086e-14
-1.2661e-14
2.39956e-15
7.76302e-16
4.96043e-15
1.79515e-15
9.46344e-15
3.65031e-15
1.59459e-14
6.36967e-15
2.36214e-14
9.53417e-15
2.77504e-14
1.15057e-14
2.98208e-14
1.27318e-14
3.17938e-14
1.14589e-14
3.29263e-14
1.05047e-14
3.38157e-14
9.64539e-15
3.51578e-14
8.69927e-15
3.68728e-14
7.65793e-15
3.90858e-14
7.62226e-15
4.06299e-14
5.93756e-15
3.77439e-14
4.13711e-15
2.87094e-14
2.35824e-15
2.34157e-14
9.28758e-16
2.38241e-14
2.02705e-16
2.32974e-14
-4.46911e-16
1.86586e-12
-3.56995e-15
2.60136e-12
-7.13212e-14
2.60939e-12
-2.00423e-13
2.63178e-12
-3.06628e-13
2.62872e-12
-3.58794e-13
2.60027e-12
-3.95948e-13
2.52236e-12
-3.96672e-13
2.26717e-12
-2.53168e-13
8.5196e-13
-1.39062e-13
4.56279e-14
-2.33202e-14
3.24442e-14
-7.23567e-15
2.92398e-14
-5.53345e-15
2.25445e-14
-4.61249e-15
1.66684e-14
-3.64532e-15
1.41583e-14
-2.95718e-15
1.21887e-14
-2.47499e-15
1.0581e-14
-2.08285e-15
9.00644e-15
-1.73144e-15
9.09374e-15
-1.31764e-15
1.23862e-14
-1.16017e-15
5.6463e-16
1.12018e-15
2.1463e-16
2.87522e-15
6.13338e-16
6.60159e-15
1.55809e-15
1.31138e-14
3.45662e-15
2.16155e-14
6.19485e-15
2.89197e-14
9.0062e-15
3.27111e-14
1.06268e-14
3.54337e-14
1.03919e-14
3.77593e-14
9.8347e-15
3.99814e-14
9.07887e-15
4.21556e-14
8.17579e-15
4.42864e-14
7.14373e-15
4.43727e-14
5.83145e-15
4.0148e-14
4.20718e-15
3.24727e-14
2.36058e-15
2.44579e-14
1.00391e-15
2.23884e-14
2.69986e-16
2.19626e-14
-5.7529e-16
2.59834e-14
-1.73557e-15
1.10182e-13
-2.94905e-15
9.39803e-13
-6.4058e-15
2.91661e-12
-3.27276e-14
2.79304e-12
-1.08264e-13
2.576e-12
-1.30374e-13
2.29366e-12
-1.05305e-13
1.50419e-12
-1.13204e-13
3.0275e-13
-2.81929e-14
3.01469e-14
-3.9624e-15
2.08933e-14
-1.36859e-15
2.08403e-14
-1.1606e-15
1.9055e-14
-1.24353e-15
1.73029e-14
-1.234e-15
1.52776e-14
-1.08133e-15
1.35401e-14
-8.03035e-16
1.19548e-14
-4.06985e-16
1.06078e-14
1.68458e-16
9.42764e-15
9.15414e-16
7.53151e-15
1.81965e-15
7.12374e-15
4.4171e-15
8.77634e-15
3.34736e-16
4.33659e-17
9.39968e-16
1.18189e-16
2.48915e-15
3.10192e-16
5.98938e-15
7.92823e-16
1.19486e-14
1.73381e-15
1.97773e-14
3.26827e-15
2.72979e-14
4.96993e-15
3.26475e-14
6.439e-15
3.55738e-14
6.80763e-15
3.76687e-14
6.23266e-15
3.91705e-14
5.37233e-15
3.923e-14
4.24971e-15
3.66476e-14
2.94872e-15
3.07645e-14
1.69702e-15
2.35735e-14
7.02501e-16
2.27206e-14
1.16725e-16
2.93057e-14
-3.8962e-16
3.99809e-14
-9.21056e-16
4.50294e-14
-9.89306e-16
3.18039e-14
-1.53917e-15
1.18118e-14
-1.13733e-15
1.28246e-14
-9.46801e-16
1.68271e-13
-1.27051e-15
2.55078e-13
-9.19192e-16
1.90383e-13
-8.15167e-16
3.6362e-14
-7.38585e-16
8.81216e-15
-6.60303e-16
5.41969e-15
-5.86026e-16
5.73034e-15
-5.20031e-16
6.84407e-15
-4.47956e-16
8.03543e-15
-3.72743e-16
9.0902e-15
-2.39864e-16
9.92861e-15
1.12181e-17
1.08315e-14
4.81033e-16
1.1017e-14
1.29374e-15
9.22176e-15
2.02162e-15
7.24674e-15
3.65198e-15
1.05743e-14
6.50775e-15
8.44139e-15
1.55657e-14
1.75906e-14
8.74943e-17
8.22757e-18
2.24125e-16
2.06712e-17
5.48543e-16
4.57055e-17
1.33792e-15
9.80085e-17
3.06322e-15
2.09135e-16
6.34422e-15
4.39087e-16
1.12595e-14
8.44639e-16
1.6767e-14
1.37032e-15
2.08194e-14
1.80424e-15
2.23936e-14
1.77134e-15
2.31584e-14
1.44839e-15
2.27616e-14
1.04512e-15
2.12987e-14
6.24317e-16
1.93551e-14
2.38702e-16
1.78507e-14
-1.16131e-16
1.71861e-14
-4.50563e-16
1.68598e-14
-7.4326e-16
1.64579e-14
-9.68111e-16
1.54804e-14
-1.08151e-15
1.22901e-14
-1.0729e-15
7.50733e-15
-9.3229e-16
6.12181e-15
-7.07402e-16
5.50559e-15
-7.11921e-16
5.3351e-15
-7.8216e-16