/*--------------------------------*- C++ -*----------------------------------*\
| =========                 |                                                 |
| \\      /  F ield         | OpenFOAM: The Open Source CFD Toolbox           |
|  \\    /   O peration     | Version:  5.0                                   |
|   \\  /    A nd           | Web:      www.OpenFOAM.org                      |
|    \\/     M anipulation  |                                                 |
\*---------------------------------------------------------------------------*/
FoamFile
{
    version     2.0;
    format      ascii;
    class       volScalarField;
    location    "0.8";
    object      epsilon;
}
// * * * * * * * * * * * * * * * * * * * * * * * * * * * * * * * * * * * * * //

dimensions      [0 2 -3 0 0 0 0];

internalField   nonuniform List<scalar> 
1935
(
1.48041
1.49986
1.53228
1.57202
1.61404
1.65402
1.6884
1.71435
1.72984
1.73357
1.72495
1.70399
1.67124
1.62768
1.5746
1.51351
1.44598
1.37356
1.29769
1.21964
1.14045
1.06096
0.981801
0.903479
0.826405
0.750978
0.677638
0.606901
0.539358
0.476099
0.41824
0.36604
0.319577
0.278742
0.243261
0.212738
0.186706
0.164683
0.146228
0.130962
0.118614
0.109026
0.102152
1.70756
1.96037
2.24607
2.56551
1.7254
1.976
2.25916
2.57616
1.75853
2.00899
2.29113
2.60623
1.79996
2.05094
2.3322
2.64471
1.84368
2.09492
2.37456
2.68309
1.88469
2.13526
2.41207
2.71504
1.91894
2.16757
2.44013
2.73597
1.94334
2.1886
2.45543
2.74273
1.95574
2.19611
2.45581
2.73335
1.95479
2.18881
2.44008
2.7068
1.93998
2.16626
2.40789
2.66292
1.91142
2.12873
2.35968
2.60225
1.86986
2.07711
2.2965
2.52599
1.81648
2.01281
2.21992
2.43586
1.75283
1.9376
2.13194
2.334
1.68067
1.85346
2.03476
2.22283
1.60182
1.76251
1.93071
2.10488
1.51809
1.66676
1.82206
1.9826
1.43114
1.56808
1.71088
1.85829
1.34238
1.46808
1.59894
1.73386
1.25299
1.36804
1.48764
1.61084
1.16387
1.26892
1.37801
1.49031
1.07566
1.17137
1.27071
1.37295
0.988843
1.07584
1.16613
1.25909
0.903761
0.982609
1.06448
1.14885
0.820743
0.891905
0.965881
1.04224
0.740155
0.80401
0.870516
0.939324
0.662459
0.71932
0.778688
0.840295
0.58823
0.638376
0.690883
0.745565
0.51839
0.561939
0.607774
0.655761
0.454462
0.491893
0.531463
0.573132
0.396727
0.428555
0.462374
0.498216
0.345285
0.372054
0.400652
0.431176
0.30004
0.322307
0.346236
0.371973
0.26071
0.279031
0.298846
0.320341
0.226867
0.241772
0.258008
0.275789
0.197994
0.209965
0.223108
0.23766
0.173543
0.182994
0.193463
0.205197
0.152999
0.160269
0.168399
0.177631
0.135915
0.141265
0.147303
0.154246
0.12196
0.125593
0.129723
0.134525
0.110936
0.113016
0.11539
0.118169
0.102768
0.103437
0.104201
0.105093
2.9385
3.36534
3.82211
4.29931
4.78736
5.27772
5.76203
6.23358
6.68826
7.11172
7.4865
7.80413
8.04615
8.18418
8.20989
8.13916
7.99074
7.76725
7.45312
7.04095
6.55078
6.02118
5.48946
4.98724
4.53977
4.16019
3.84831
3.59711
3.40054
3.25585
3.1635
3.12892
3.16527
3.2959
3.55261
3.9483
4.3381
4.46925
4.77666
9.11997
2.94734
3.37422
3.83349
4.31558
4.80864
5.29961
5.77505
6.22302
6.6308
6.98088
7.26755
7.4882
7.63199
7.68399
7.64591
7.53062
7.3496
7.10442
6.78788
6.40032
5.96009
5.49734
5.04154
4.61618
4.23912
3.91905
3.65547
3.44349
3.27873
3.15938
3.08682
3.06785
3.11815
3.26703
3.5603
4.03444
4.46894
4.5187
4.81523
8.66428
2.97458
3.39797
3.85322
4.33056
4.81682
5.29637
5.75261
6.17008
6.52955
6.81817
7.03893
7.18835
7.25914
7.24796
7.16167
7.01045
6.80257
6.54094
6.22521
5.86121
5.4657
5.06189
4.67154
4.3114
3.99354
3.72339
3.50046
3.32162
3.18414
3.08705
3.03195
3.02559
3.08382
3.23782
3.54169
4.05152
4.51397
4.57861
5.05443
8.27707
3.0082
3.4241
3.86911
4.33325
4.80284
5.26125
5.69053
6.07321
6.39011
6.6329
6.80545
6.90441
6.9236
6.86837
6.74809
6.57145
6.34587
6.07625
5.767
5.42684
5.07058
4.71618
4.37932
4.0717
3.80129
3.57143
3.38171
3.23023
3.11563
3.03751
2.99734
3.00057
3.06017
3.20321
3.48048
3.95797
4.41995
4.62763
5.54139
8.72726
3.03943
3.44413
3.87384
4.31851
4.76459
5.19563
5.59392
5.94161
6.22338
6.43279
6.5707
6.6336
6.61907
6.53604
6.39463
6.20323
5.96945
5.69999
5.40206
5.0855
4.76316
4.44929
4.15498
3.88852
3.65521
3.45718
3.29413
3.16494
3.06905
3.00643
2.97834
2.9888
3.04648
3.16996
3.39657
3.78033
4.21724
4.61714
5.97247
10.4091
3.06206
3.45265
3.86351
4.28476
4.70342
5.10407
5.47031
5.78606
6.03872
6.22327
6.33661
6.37463
6.33991
6.24201
6.09045
5.89372
5.65997
5.39716
5.11388
4.82012
4.52697
4.24599
3.98517
3.75056
3.54589
3.37264
3.23074
3.1194
3.03827
2.98757
2.96847
2.98407
3.04025
3.14848
3.33261
3.62503
4.00932
4.5118
5.85022
12.5005
3.07189
3.44634
3.83631
4.23225
4.62207
4.99181
5.32696
5.61409
5.8429
6.00719
6.10255
6.12558
6.08111
5.97791
5.82477
5.63026
5.40292
5.15142
4.88483
4.61277
4.34497
4.09071
3.8563
3.64639
3.46376
3.30954
3.18404
3.0866
3.01677
2.97463
2.96135
2.97962
3.03433
3.13513
3.30077
3.55899
3.92886
4.51768
6.01979
14.5897
3.0662
3.42331
3.79156
4.16189
4.52324
4.86327
5.16947
5.43066
5.63825
5.78565
5.86786
5.88355
5.8369
5.73528
5.5869
5.40022
5.18392
4.94689
4.69816
4.44673
4.20117
3.96917
3.75603
3.56558
3.40016
3.2608
3.1477
3.0605
2.99879
2.96246
2.95247
2.9716
3.02506
3.12333
3.28574
3.54324
3.94253
4.62459
6.29155
15.8149
3.04338
3.38255
3.72911
4.07455
4.40889
4.72131
5.00113
5.23887
5.42712
5.56003
5.63331
5.64608
5.6016
5.50606
5.36688
5.19216
4.99033
4.77004
4.53989
4.30819
4.08254
3.86954
3.67391
3.49906
3.34714
3.2192
3.11553
3.03592
2.98007
2.94798
2.94053
2.9606
3.01429
3.11327
3.27837
3.54422
3.97149
4.71778
6.49472
16.2919
3.00269
3.32374
3.64913
3.97094
4.2802
4.56748
4.82361
5.04051
5.21175
5.33245
5.39928
5.41152
5.37167
5.2848
5.15747
4.99711
4.81164
4.60918
4.39772
4.18484
3.97733
3.78109
3.6005
3.43875
3.29796
3.17931
3.08325
3.0098
2.95887
2.93068
2.92643
2.94933
3.00604
3.10903
3.27991
3.5545
3.99739
4.77192
6.58513
16.4065
2.94415
3.24712
3.55209
3.85172
4.13797
4.40258
4.63766
4.83627
4.9929
5.10349
5.16552
5.17848
5.14436
5.06729
4.95295
4.80797
4.63958
4.45519
4.26211
4.06721
3.87663
3.69575
3.52872
3.37867
3.24779
3.13741
3.04827
2.98068
2.93487
2.91148
2.91213
2.9405
3.00363
3.11414
3.29324
3.57565
4.02505
4.80415
6.61113
16.325
2.86843
3.15348
3.43881
3.71769
3.98289
4.22714
4.44358
4.62627
4.77046
4.87277
4.93126
4.94564
4.91757
4.85049
4.74925
4.61969
4.46825
4.3016
4.12634
3.94869
3.77421
3.60789
3.45371
3.31479
3.19343
3.0912
3.00916
2.948
2.90839
2.89145
2.89931
2.93602
3.0088
3.12988
3.31909
3.60887
4.06011
4.83249
6.61448
16.1534
2.77682
3.04414
3.31058
3.56997
3.81584
4.04176
4.24171
4.41054
4.54416
4.63971
4.69565
4.71188
4.68984
4.63245
4.54387
4.42919
4.29409
4.1445
3.98635
3.82524
3.66627
3.5141
3.37254
3.2447
3.13304
3.03941
2.9652
2.91157
2.87969
2.87116
2.88858
2.93629
3.02141
3.15535
3.35615
3.65347
4.10491
4.8666
6.61751
15.9713
2.67113
2.92094
3.16914
3.41015
3.63814
3.84742
4.03268
4.18938
4.31398
4.40401
4.45823
4.47662
4.46047
4.4123
4.3357
4.23509
4.11547
3.9821
3.84026
3.69504
3.55111
3.41282
3.28385
3.16732
3.06581
2.98146
2.91607
2.87124
2.84865
2.85041
2.87949
2.94035
3.03982
3.18827
3.40176
3.70714
4.15882
4.90954
6.62996
15.8209
2.55362
2.78616
3.01672
3.24027
3.45159
3.6456
3.81762
3.96363
4.08047
4.16601
4.21916
4.23997
4.22957
4.19014
4.12481
4.03744
3.93239
3.81434
3.688
3.55799
3.42862
3.30397
3.18758
3.08257
2.99167
2.91729
2.86162
2.82673
2.81479
2.82836
2.87071
2.94631
3.06151
3.22554
3.45251
3.76663
4.21936
4.96047
6.65383
15.7128
2.42685
2.64244
2.85593
3.06282
3.25848
3.43836
3.59831
3.73475
3.84486
3.92671
3.97935
4.00279
3.99801
3.96693
3.91223
3.8373
3.74597
3.64236
3.53071
3.41521
3.29985
3.18851
3.08457
2.99115
2.91112
2.84718
2.80187
2.77774
2.77742
2.80386
2.86055
2.95189
3.08366
3.26391
3.50489
3.82841
4.2833
5.01671
6.6869
15.6408
2.29352
2.49258
2.68961
2.88062
3.06148
3.22818
3.37702
3.50479
3.60896
3.68778
3.74033
3.76658
3.76735
3.74427
3.69967
3.63649
3.55808
3.4681
3.37032
3.26856
3.16661
3.06809
2.97626
2.89426
2.82509
2.77171
2.73706
2.72408
2.73588
2.77573
2.84731
2.95487
3.10359
3.30035
3.55571
3.88925
4.34742
5.07494
6.72503
15.5908
2.15629
2.33941
2.52067
2.69656
2.86346
3.01782
3.15637
3.27622
3.3751
3.45137
3.50415
3.53334
3.53958
3.52421
3.48925
3.43719
3.37099
3.29384
3.20913
3.12028
3.03105
2.94472
2.86447
2.79344
2.7348
2.69177
2.66764
2.66578
2.68971
2.74305
2.8296
2.95341
3.11908
3.33243
3.60237
3.94644
4.40885
5.1319
6.76361
15.5469
2.01761
2.18552
2.35181
2.51342
2.6672
2.81005
2.93904
3.05163
3.14574
3.21986
3.27312
3.30531
3.3169
3.30898
3.2832
3.24171
3.18702
3.12196
3.04952
2.97282
2.89548
2.82055
2.75113
2.69041
2.6417
2.60847
2.59438
2.60321
2.63887
2.70533
2.80649
2.94624
3.12861
3.35839
3.64293
3.99788
4.46528
5.18479
6.79835
15.4944
1.87959
2.03316
2.1854
2.33366
2.47521
2.60734
2.72751
2.83344
2.92326
2.99555
3.04945
3.08466
3.10146
3.10069
3.08367
3.05218
3.00836
2.95465
2.89371
2.82836
2.76206
2.69768
2.63824
2.58698
2.54737
2.52314
2.51831
2.53707
2.58374
2.66259
2.77769
2.93277
3.13132
3.37711
3.67609
4.0421
4.515
5.23152
6.82593
15.421
1.74385
1.88408
2.02327
2.15917
2.28943
2.4117
2.52378
2.62364
2.7096
2.78035
2.83502
2.87322
2.89508
2.90115
2.89246
2.87045
2.83687
2.7938
2.74358
2.68886
2.6328
2.57809
2.52773
2.48498
2.4535
2.4373
2.44074
2.46844
2.52513
2.61541
2.74349
2.913
3.12691
3.38809
3.70114
4.07821
4.55703
5.27105
6.84499
15.3199
1.61156
1.73948
1.86669
1.99126
2.11119
2.22447
2.32918
2.42357
2.50611
2.57558
2.63115
2.67232
2.69906
2.7117
2.71097
2.69794
2.67403
2.64094
2.60063
2.55604
2.50952
2.46368
2.42147
2.38627
2.36188
2.35261
2.36319
2.39867
2.4642
2.56472
2.70462
2.8874
3.11561
3.39125
3.71774
4.10573
4.59103
5.30398
6.85927
15.2072
1.48337
1.60004
1.71631
1.83057
1.94112
2.04627
2.14436
2.23386
2.31341
2.3819
2.43849
2.48264
2.51415
2.53314
2.54005
2.53563
2.52093
2.4973
2.46684
2.43173
2.39406
2.35629
2.32137
2.29272
2.27435
2.27087
2.28737
2.32935
2.40239
2.51179
2.6621
2.85674
3.09784
3.38667
3.72566
4.12421
4.6169
5.33293
6.88654
15.2381
1.35958
1.46595
1.57228
1.67719
1.77927
1.8771
1.96926
2.05444
2.13144
2.19925
2.25705
2.30425
2.34051
2.36575
2.38015
2.38413
2.37836
2.36432
2.34356
2.31755
2.28818
2.2578
2.22932
2.20626
2.19283
2.19394
2.21507
2.26217
2.34124
2.45795
2.61703
2.8218
3.07402
3.3743
3.72432
4.13247
4.63232
5.35326
6.91582
15.3654
1.24018
1.33714
1.43438
1.5308
1.62522
1.71645
1.80333
1.88472
1.9596
2.02706
2.0863
2.13672
2.17786
2.20944
2.23136
2.24381
2.2477
2.24364
2.23244
2.21527
2.19378
2.17018
2.14736
2.12893
2.11933
2.12375
2.14811
2.19878
2.28222
2.40443
2.57033
2.78304
3.0442
3.35401
3.71316
4.12912
4.63481
5.35989
6.9301
15.4638
1.12507
1.21332
1.30222
1.39085
1.47828
1.56354
1.64568
1.72377
1.79695
1.86441
1.92542
1.97937
2.02569
2.06394
2.0942
2.11652
2.1307
2.13684
2.13531
2.12691
2.11301
2.09566
2.07771
2.06289
2.05588
2.06222
2.08822
2.14069
2.22652
2.35204
2.52241
2.74115
3.00917
3.326
3.69188
4.11363
4.6235
5.35103
6.92481
15.5146
1.01417
1.09428
1.17538
1.25679
1.33775
1.41754
1.4954
1.5706
1.64246
1.71032
1.77349
1.83145
1.88394
1.93063
1.97077
2.00373
2.0289
2.04585
2.05441
2.05493
2.04844
2.0368
2.02283
2.01044
2.00456
2.01113
2.03687
2.089
2.17484
2.30122
2.4739
2.69592
2.96785
3.28894
3.65911
4.08468
4.59715
5.32538
6.89826
15.5134
0.907549
0.979924
1.05366
1.12823
1.20311
1.27778
1.35171
1.42438
1.49524
1.56405
1.63059
1.69441
1.75482
1.81107
1.86216
1.90699
1.94437
1.97318
1.99262
2.00241
2.00316
1.99655
1.98543
1.9739
1.9673
1.97199
1.99511
2.04433
2.12737
2.25177
2.42316
2.64501
2.91781
3.24043
3.61259
4.04015
4.55385
5.28138
6.84925
15.4588
0.805524
0.870477
0.937146
1.00515
1.07418
1.14396
1.2143
1.28511
1.35632
1.42765
1.49886
1.56952
1.63898
1.70626
1.77004
1.82863
1.88007
1.92239
1.95383
1.97333
1.98098
1.97833
1.96835
1.95553
1.94571
1.94583
1.96348
2.00668
2.08369
2.2021
2.36721
2.58283
2.85223
3.17491
3.54773
3.97578
4.48966
5.21569
6.77517
15.3475
0.708673
0.766459
0.826343
0.888246
0.952096
1.01787
1.08561
1.15544
1.22752
1.30193
1.37863
1.45739
1.53758
1.61807
1.69709
1.77219
1.84037
1.89839
1.94325
1.97283
1.98656
1.98607
1.97459
1.95731
1.94099
1.93327
1.94214
1.97589
2.04287
2.1502
2.30227
2.50383
2.7631
3.08195
3.45426
3.88154
4.39528
5.12022
6.66887
15.1656
0.619414
0.670508
0.724109
0.780305
0.839256
0.901214
0.96653
1.03565
1.10908
1.1873
1.27068
1.35928
1.45264
1.54948
1.64746
1.743
1.83154
1.90808
1.96785
2.00742
2.02543
2.02378
2.00669
1.98065
1.95384
1.93472
1.93204
1.95456
2.0096
2.10247
2.23791
2.42199
2.66122
2.96063
3.32244
3.74619
4.25837
4.98271
6.51737
14.8776
0.538346
0.583174
0.63084
0.681625
0.735929
0.794296
0.857429
0.926192
1.00158
1.08465
1.17635
1.27729
1.38733
1.50506
1.62729
1.74872
1.86239
1.96071
2.03631
2.08365
2.10205
2.0942
2.06645
2.02663
1.98443
1.95013
1.9336
1.94369
1.98661
2.06625
2.18618
2.35131
2.56641
2.83583
3.16805
3.5744
4.07908
4.79716
6.30773
14.4318
0.465652
0.504672
0.546795
0.592502
0.642446
0.697497
0.758775
0.827677
0.905871
0.995218
1.09758
1.21444
1.34621
1.4913
1.64511
1.79955
1.94386
2.06598
2.15524
2.20566
2.22003
2.20131
2.15569
2.09428
2.03038
1.97647
1.94314
1.93858
1.9681
2.03537
2.14296
2.29289
2.48577
2.72447
3.02155
3.39557
3.87724
4.57525
6.03763
13.7774
0.401329
0.435042
0.472064
0.513079
0.559013
0.611104
0.670977
0.740716
0.822899
0.920557
1.03692
1.17482
1.33547
1.51679
1.71159
1.90691
2.08463
2.22788
2.32723
2.37882
2.38211
2.34178
2.26653
2.17383
2.08283
2.00754
1.95738
1.93879
1.95571
2.01076
2.10549
2.24033
2.41433
2.62873
2.89472
3.23398
3.68142
4.33999
5.71599
12.8687
0.345129
0.374065
0.40647
0.443229
0.485563
0.535137
0.594199
0.665727
0.753557
0.862402
0.997514
1.16365
1.36292
1.59175
1.83784
2.07793
2.28631
2.44777
2.55226
2.59255
2.56659
2.48554
2.36985
2.24336
2.12773
2.03611
1.97475
1.94729
1.95549
2.00028
2.08213
2.20098
2.35669
2.55049
2.79064
3.09819
3.50737
4.11241
5.36414
11.6583
0.296553
0.321245
0.349519
0.382471
0.421642
0.4692
0.528176
0.602751
0.698502
0.822564
0.983077
1.18725
1.43746
1.72622
2.02975
2.31211
2.5455
2.71267
2.79873
2.79514
2.71727
2.58802
2.43379
2.28202
2.15435
2.05958
1.99793
1.96984
1.97506
2.01321
2.08431
2.18844
2.32608
2.49927
2.7154
2.99279
3.36433
3.92081
5.07572
10.2736
0.254897
0.275828
0.300413
0.329955
0.366348
0.412355
0.47203
0.551245
0.657962
0.802853
0.998017
1.25313
1.56829
1.92499
2.2824
2.59559
2.83367
2.9731
2.99726
2.92351
2.78532
2.61019
2.42956
2.27479
2.16002
2.08209
2.03425
2.01415
2.0221
2.05733
2.12028
2.2116
2.3323
2.48486
2.67644
2.92388
3.26076
3.77668
4.83141
8.76905
0.21932
0.236879
0.2581
0.284492
0.318321
0.363027
0.423834
0.508603
0.628738
0.799527
1.0379
1.35536
1.7463
2.17454
2.57757
2.90183
3.10946
3.17324
3.10346
2.94702
2.75017
2.54658
2.36935
2.24113
2.15622
2.10365
2.07714
2.07289
2.08859
2.12436
2.18208
2.26262
2.3676
2.50097
2.67018
2.89082
3.19614
3.6684
4.58165
7.10436
0.188932
0.203327
0.221262
0.244391
0.27531
0.318136
0.379426
0.469525
0.604062
0.804264
1.09283
1.48244
1.95792
2.45937
2.89633
3.19778
3.32544
3.27096
3.08637
2.8486
2.62044
2.43849
2.31507
2.24146
2.19308
2.15883
2.14119
2.14255
2.1628
2.19957
2.25322
2.32539
2.4187
2.53758
2.69015
2.89179
3.1732
3.60042
4.32066
5.31895
0.162889
0.174164
0.188642
0.208011
0.235048
0.274409
0.333972
0.426898
0.573997
0.803954
1.14641
1.61596
2.18758
2.77282
3.23503
3.46647
3.44387
3.22754
2.91944
2.6258
2.42225
2.33472
2.33368
2.35457
2.34436
2.30501
2.26846
2.25384
2.26482
2.29414
2.34017
2.4043
2.4897
2.60151
2.74845
2.94605
3.21855
3.58881
3.99993
3.58723
0.140588
0.148665
0.159321
0.174075
0.19557
0.228569
0.281853
0.371507
0.525015
0.781049
1.17598
1.73073
2.42164
3.12796
3.62492
3.7138
3.42564
2.9946
2.57227
2.26534
2.15234
2.23876
2.45316
2.654
2.70755
2.63023
2.52791
2.46196
2.43963
2.44892
2.48191
2.53716
2.6173
2.72733
2.87438
3.06567
3.29562
3.50081
3.43707
2.2611
0.12171
0.126495
0.132931
0.142079
0.155908
0.178303
0.217431
0.291216
0.437455
0.716792
1.15423
1.78008
2.59566
3.49714
4.13663
4.02428
3.29266
2.56482
2.01129
1.68162
1.62257
1.85957
2.36749
2.96477
3.22813
3.10371
2.89276
2.74294
2.67019
2.65655
2.67884
2.72626
2.7962
2.88888
3.00183
3.11923
3.18918
3.0798
2.56306
1.57003
0.106229
0.107764
0.10983
0.112779
0.117299
0.124873
0.139218
0.171587
0.26497
0.609533
1.08142
1.73908
2.62453
3.68922
4.39072
4.18593
3.38747
1.87764
0.927091
0.565818
0.48286
0.571416
0.90826
1.71851
3.05822
2.99293
2.78515
2.64288
2.59384
2.60107
2.63011
2.66411
2.69744
2.7248
2.73236
2.68861
2.53586
2.21022
1.83175
3.07678
)
;

boundaryField
{
    leftWall
    {
        Cmu             0.09;
        kappa           0.41;
        E               9.8;
        type            epsilonWallFunction;
        value           nonuniform 0();
    }
    rightWall
    {
        Cmu             0.09;
        kappa           0.41;
        E               9.8;
        type            epsilonWallFunction;
        value           nonuniform List<scalar> 
43
(
9.11997
8.66428
8.27707
8.72726
10.4091
12.5005
14.5897
15.8149
16.2919
16.4065
16.325
16.1534
15.9713
15.8209
15.7128
15.6408
15.5908
15.5469
15.4944
15.421
15.3199
15.2072
15.2381
15.3654
15.4638
15.5146
15.5134
15.4588
15.3475
15.1656
14.8776
14.4318
13.7774
12.8687
11.6583
10.2736
8.76905
7.10436
5.31895
3.58723
2.2611
1.57003
3.07678
)
;
    }
    lowerWall
    {
        Cmu             0.09;
        kappa           0.41;
        E               9.8;
        type            epsilonWallFunction;
        value           nonuniform 0();
    }
    atmosphere
    {
        type            inletOutlet;
        inletValue      uniform 0.1;
        value           nonuniform List<scalar> 
45
(
0.1
0.1
0.1
0.1
0.1
0.1
0.1
0.1
0.1
0.1
0.1
0.1
0.1
0.1
0.609533
1.08142
1.73908
2.62453
3.68922
4.39072
4.18593
3.38747
0.1
0.1
0.1
0.1
0.1
0.1
0.1
3.05822
2.99293
2.78515
2.64288
2.59384
2.60107
2.63011
2.66411
2.69744
2.7248
2.73236
2.68861
2.53586
2.21022
1.83175
0.1
)
;
    }
    defaultFaces
    {
        type            empty;
    }
    procBoundary3to1
    {
        type            processor;
        value           nonuniform List<scalar> 
45
(
1.48027
1.71303
1.97197
2.26373
2.58809
2.96365
3.38846
3.83757
4.3014
4.77311
5.25075
5.7323
6.21771
6.71073
7.2051
7.68166
8.11828
8.48646
8.7405
8.85132
8.83528
8.71996
8.51592
8.19949
7.75398
7.20749
6.60752
5.9959
5.41112
4.88747
4.44261
4.07638
3.78056
3.54786
3.37484
3.26046
3.20797
3.22704
3.33438
3.54894
3.86791
4.19747
4.4113
4.86246
9.3462
)
;
    }
    procBoundary3to2
    {
        type            processor;
        value           nonuniform List<scalar> 
43
(
1.27827
1.29861
1.32962
1.36681
1.40607
1.4438
1.47692
1.50295
1.52005
1.52698
1.52313
1.5084
1.48318
1.44824
1.40462
1.35356
1.29639
1.23441
1.16887
1.10085
1.03129
0.960959
0.89048
0.820369
0.751091
0.683103
0.6169
0.553036
0.492117
0.435346
0.383444
0.336654
0.295036
0.258474
0.22671
0.19938
0.176072
0.156369
0.139901
0.126353
0.115509
0.107255
0.10158
)
;
    }
}


// ************************************************************************* //
