/*--------------------------------*- C++ -*----------------------------------*\
| =========                 |                                                 |
| \\      /  F ield         | OpenFOAM: The Open Source CFD Toolbox           |
|  \\    /   O peration     | Version:  5.0                                   |
|   \\  /    A nd           | Web:      www.OpenFOAM.org                      |
|    \\/     M anipulation  |                                                 |
\*---------------------------------------------------------------------------*/
FoamFile
{
    version     2.0;
    format      ascii;
    class       volScalarField;
    location    "0.8";
    object      k;
}
// * * * * * * * * * * * * * * * * * * * * * * * * * * * * * * * * * * * * * //

dimensions      [0 2 -2 0 0 0 0];

internalField   nonuniform List<scalar> 
1935
(
0.419275
0.422982
0.428353
0.434769
0.441658
0.448504
0.454854
0.46033
0.464629
0.467525
0.468861
0.468544
0.466535
0.462841
0.457501
0.450583
0.442167
0.432342
0.4212
0.408831
0.395323
0.380765
0.365247
0.348873
0.331762
0.314057
0.295928
0.277575
0.259224
0.241215
0.223911
0.207496
0.192114
0.177866
0.164805
0.152946
0.142276
0.132761
0.124363
0.117049
0.110799
0.105615
0.101526
0.451136
0.484947
0.521495
0.56066
0.454729
0.488395
0.524803
0.563886
0.460148
0.493776
0.530068
0.568968
0.466664
0.500255
0.536358
0.574903
0.473628
0.507114
0.542906
0.5809
0.480471
0.513748
0.549087
0.586349
0.486713
0.519661
0.55441
0.59079
0.49196
0.524458
0.558499
0.593881
0.495908
0.527844
0.561076
0.59538
0.498335
0.529609
0.561952
0.595127
0.499094
0.529619
0.561012
0.59303
0.498106
0.527809
0.558207
0.589056
0.495346
0.524171
0.553545
0.583225
0.490836
0.518742
0.547073
0.575596
0.484634
0.511593
0.538876
0.566262
0.476819
0.502817
0.52906
0.555336
0.467488
0.492522
0.517738
0.54294
0.456739
0.480816
0.505029
0.529195
0.444672
0.467804
0.491041
0.514212
0.431379
0.453582
0.47587
0.498087
0.416949
0.438234
0.459598
0.480896
0.401463
0.421838
0.442294
0.462699
0.385005
0.404466
0.42402
0.443545
0.367666
0.386196
0.40484
0.423484
0.349554
0.367123
0.384831
0.402574
0.330798
0.347362
0.364094
0.380898
0.311561
0.327064
0.342764
0.358576
0.292039
0.306419
0.321023
0.335775
0.27246
0.285656
0.299096
0.312716
0.253135
0.265059
0.277257
0.289669
0.23452
0.245163
0.256088
0.26725
0.216819
0.226197
0.235855
0.245763
0.200197
0.208347
0.216766
0.225437
0.184776
0.191756
0.198987
0.206462
0.170624
0.176512
0.182627
0.188972
0.15777
0.162655
0.167742
0.173039
0.146201
0.15018
0.154334
0.158676
0.135883
0.139051
0.142366
0.145849
0.12677
0.129215
0.13178
0.13449
0.118818
0.120616
0.122507
0.124515
0.111997
0.113215
0.114497
0.115864
0.106301
0.106996
0.107727
0.108506
0.101746
0.101969
0.102202
0.102448
0.604588
0.652895
0.702665
0.752943
0.802908
0.851924
0.899384
0.944829
0.988018
1.02788
1.0631
1.09305
1.11635
1.13098
1.13644
1.13411
1.12549
1.11084
1.08887
1.05862
1.02098
0.978341
0.933258
0.888179
0.845335
0.806158
0.770911
0.739113
0.710244
0.683976
0.660079
0.6385
0.61946
0.603405
0.590395
0.577234
0.546473
0.471322
0.352551
0.177449
0.607852
0.656432
0.706727
0.757736
0.80839
0.857631
0.904446
0.947998
0.987431
1.0215
1.04983
1.07227
1.08802
1.09601
1.09648
1.09052
1.07908
1.06229
1.03944
1.01015
0.975335
0.936914
0.897005
0.857514
0.820085
0.785688
0.754448
0.725982
0.69984
0.675688
0.653301
0.632679
0.614209
0.598791
0.587548
0.578761
0.548005
0.462502
0.338271
0.17094
0.61269
0.661006
0.711028
0.761732
0.811912
0.860278
0.905562
0.946667
0.982248
1.01144
1.03458
1.05142
1.06142
1.06441
1.06097
1.05199
1.03812
1.01956
0.996082
0.967811
0.935677
0.901209
0.866039
0.831583
0.798983
0.768848
0.741215
0.715789
0.692214
0.67017
0.649384
0.62978
0.6117
0.596141
0.584786
0.576977
0.544094
0.451041
0.324056
0.168187
0.618065
0.665605
0.714652
0.764176
0.81293
0.859535
0.902612
0.940903
0.973071
0.998601
1.01788
1.03067
1.03652
1.0359
1.02961
1.01837
1.00276
0.983079
0.959507
0.932464
0.902849
0.871899
0.840839
0.810686
0.782203
0.755749
0.731301
0.708629
0.687467
0.667505
0.648417
0.62997
0.612208
0.595757
0.582009
0.570854
0.534916
0.442758
0.317474
0.17932
0.623208
0.669541
0.717065
0.764769
0.811432
0.855691
0.896182
0.931603
0.960907
0.983719
1.00016
1.00999
1.01303
1.01004
1.00187
0.989182
0.972567
0.952468
0.929303
0.903663
0.87639
0.848509
0.820922
0.794357
0.769315
0.746001
0.724355
0.704179
0.685257
0.667295
0.649941
0.632837
0.615676
0.598439
0.58164
0.564657
0.528739
0.449107
0.337088
0.204205
0.627561
0.672372
0.718
0.76348
0.807656
0.849259
0.887023
0.919773
0.946647
0.967367
0.981729
0.989422
0.990686
0.986323
0.977116
0.963739
0.946804
0.926872
0.90451
0.880384
0.855273
0.830043
0.805361
0.781762
0.75958
0.738925
0.719726
0.701791
0.684898
0.668771
0.653058
0.637357
0.621222
0.604181
0.585985
0.565172
0.531961
0.470032
0.376752
0.229095
0.630732
0.673819
0.717345
0.7604
0.801926
0.84078
0.875845
0.906142
0.930964
0.949904
0.962658
0.968973
0.969267
0.964276
0.954714
0.941257
0.924556
0.905242
0.883962
0.861406
0.838291
0.815345
0.7931
0.77196
0.752152
0.733729
0.716632
0.70066
0.685561
0.671041
0.65678
0.642409
0.627482
0.611532
0.594076
0.573563
0.543521
0.493754
0.412296
0.249984
0.632445
0.673707
0.715056
0.755649
0.794532
0.830705
0.863205
0.89122
0.914156
0.931552
0.943046
0.948565
0.948478
0.943398
0.933991
0.920925
0.90487
0.886498
0.866485
0.845511
0.82424
0.803293
0.783118
0.764038
0.746225
0.729705
0.714389
0.700084
0.68653
0.673411
0.660403
0.647198
0.633447
0.618838
0.602942
0.584319
0.558246
0.515365
0.437305
0.259729
0.632509
0.671923
0.711118
0.749319
0.785679
0.819328
0.849448
0.875349
0.896513
0.91253
0.923092
0.928162
0.928032
0.923218
0.914324
0.901995
0.886895
0.869696
0.851071
0.831674
0.812115
0.792942
0.774551
0.757218
0.741084
0.726163
0.712358
0.699477
0.687258
0.675394
0.663561
0.651471
0.638883
0.625575
0.611133
0.594142
0.570446
0.530598
0.452997
0.263173
0.630804
0.668399
0.705522
0.741467
0.775482
0.806815
0.834767
0.858751
0.878316
0.893124
0.902944
0.907752
0.907773
0.903435
0.895276
0.883897
0.869933
0.854034
0.836847
0.818988
0.801023
0.783446
0.766624
0.750805
0.736121
0.722583
0.710098
0.698484
0.687492
0.676829
0.666196
0.655327
0.643999
0.631983
0.618777
0.60281
0.579882
0.540396
0.46126
0.263543
0.627264
0.663103
0.69827
0.732125
0.764001
0.793245
0.819258
0.841539
0.859702
0.873473
0.882686
0.887334
0.8876
0.883838
0.876519
0.866191
0.853444
0.838889
0.823135
0.806759
0.790283
0.774167
0.758757
0.744292
0.730903
0.718613
0.707345
0.696938
0.687164
0.677758
0.668445
0.658968
0.649074
0.638441
0.626364
0.610988
0.587877
0.547316
0.46578
0.262223
0.621876
0.656036
0.689379
0.721321
0.75127
0.778654
0.80296
0.823756
0.840715
0.853615
0.862338
0.866894
0.867444
0.864288
0.857836
0.848578
0.837054
0.823829
0.809466
0.794502
0.779423
0.764662
0.750553
0.737335
0.72515
0.714042
0.703961
0.694775
0.686289
0.678267
0.670452
0.662571
0.654306
0.645172
0.634195
0.619188
0.59546
0.553237
0.469028
0.260248
0.614668
0.647237
0.678888
0.709091
0.737317
0.763065
0.785884
0.805406
0.821351
0.833537
0.841881
0.846408
0.847263
0.844708
0.839104
0.830888
0.820547
0.808597
0.795557
0.781923
0.768154
0.754659
0.741767
0.729725
0.718694
0.708746
0.699866
0.691961
0.684873
0.678392
0.672261
0.666172
0.659703
0.652172
0.642311
0.627609
0.603141
0.559116
0.47221
0.258347
0.605708
0.636774
0.666861
0.69549
0.722185
0.746501
0.768043
0.786489
0.801598
0.813219
0.821291
0.82585
0.827031
0.825067
0.820276
0.81305
0.803828
0.793077
0.781274
0.768882
0.756331
0.744018
0.73227
0.721348
0.711436
0.702643
0.694996
0.688444
0.682865
0.678067
0.673783
0.669643
0.665097
0.659252
0.650549
0.636179
0.611016
0.565273
0.475779
0.25686
0.595093
0.624743
0.653389
0.680594
0.705931
0.729002
0.749457
0.76701
0.781449
0.792646
0.800553
0.805212
0.806746
0.805365
0.801354
0.795062
0.786884
0.777247
0.766587
0.755339
0.743911
0.732691
0.722011
0.712147
0.703316
0.695667
0.689272
0.684126
0.68014
0.677132
0.674811
0.672729
0.670194
0.666095
0.658605
0.644651
0.618932
0.571662
0.479774
0.25584
0.582939
0.61126
0.638578
0.664497
0.688632
0.710625
0.730162
0.746987
0.760909
0.771814
0.779661
0.784489
0.786412
0.785617
0.782358
0.776948
0.769744
0.761134
0.75152
0.741311
0.730902
0.720677
0.710974
0.702093
0.694287
0.687747
0.682596
0.678873
0.676521
0.675361
0.675067
0.675106
0.674633
0.672328
0.666118
0.652697
0.626613
0.578066
0.484032
0.255188
0.569371
0.596448
0.622545
0.647304
0.670376
0.691439
0.710208
0.72645
0.739992
0.750724
0.75861
0.763678
0.76603
0.765831
0.763307
0.758737
0.752441
0.744773
0.736108
0.72683
0.717328
0.707987
0.699157
0.691164
0.684299
0.678804
0.674851
0.672527
0.671803
0.672502
0.674255
0.676436
0.678049
0.677577
0.672727
0.659981
0.63375
0.584204
0.488305
0.254746
0.554513
0.580428
0.605403
0.629115
0.651248
0.67151
0.689642
0.705428
0.718707
0.729373
0.737384
0.742759
0.745582
0.745995
0.744194
0.740426
0.734979
0.728176
0.720362
0.711903
0.703198
0.694624
0.686549
0.67933
0.673301
0.668755
0.665921
0.664931
0.665788
0.668314
0.672095
0.676407
0.680115
0.681518
0.678115
0.666199
0.640049
0.589791
0.492332
0.254344
0.538475
0.563305
0.58725
0.610016
0.631319
0.650892
0.668498
0.683936
0.697051
0.707738
0.715949
0.721688
0.725019
0.726057
0.72497
0.721973
0.717323
0.711312
0.704262
0.69652
0.688496
0.680567
0.67312
0.666549
0.661233
0.657521
0.655698
0.655949
0.658306
0.662592
0.668351
0.674768
0.680572
0.683888
0.682021
0.671092
0.645253
0.594567
0.495868
0.253822
0.521349
0.545167
0.568162
0.590071
0.610637
0.629615
0.646786
0.661962
0.674993
0.685773
0.694241
0.700387
0.704253
0.705926
0.705544
0.70329
0.699388
0.694103
0.687735
0.680618
0.673166
0.665764
0.658824
0.652772
0.648038
0.645032
0.644098
0.645476
0.649232
0.655193
0.662863
0.671344
0.679234
0.684493
0.684247
0.674456
0.649148
0.598313
0.4987
0.253052
0.503205
0.526071
0.548186
0.569313
0.589216
0.607675
0.624484
0.639465
0.652472
0.663394
0.67216
0.678744
0.683161
0.685472
0.685784
0.684245
0.681048
0.676429
0.670668
0.664096
0.657126
0.650148
0.643598
0.637943
0.633665
0.631235
0.631064
0.633449
0.638495
0.646034
0.655538
0.666029
0.675981
0.683199
0.684648
0.676132
0.651562
0.60085
0.500658
0.251962
0.484091
0.506054
0.527343
0.547744
0.567043
0.585037
0.601535
0.616368
0.629391
0.640488
0.649577
0.656613
0.661589
0.664535
0.665525
0.664675
0.662144
0.658138
0.652909
0.646839
0.64028
0.633641
0.627382
0.622014
0.618075
0.6161
0.616571
0.619845
0.62607
0.635088
0.646341
0.658775
0.670748
0.679922
0.683112
0.675988
0.65235
0.602037
0.501645
0.250716
0.464043
0.485133
0.505632
0.525344
0.544076
0.56164
0.577858
0.592568
0.605627
0.616914
0.626336
0.633828
0.639359
0.642931
0.644584
0.644398
0.6425
0.639063
0.634372
0.628751
0.622546
0.616173
0.610123
0.604949
0.601246
0.59962
0.600624
0.604678
0.611976
0.622372
0.63528
0.649571
0.663497
0.67459
0.679536
0.673887
0.651352
0.601743
0.501693
0.250987
0.443092
0.463319
0.483041
0.50208
0.520259
0.537406
0.553353
0.567946
0.581043
0.592519
0.602268
0.61021
0.616286
0.620471
0.62277
0.62323
0.621936
0.619092
0.61494
0.609745
0.603852
0.597693
0.591786
0.586729
0.58318
0.581813
0.583253
0.587988
0.596256
0.607924
0.622375
0.638412
0.654187
0.667104
0.67377
0.66965
0.648393
0.599785
0.500606
0.252362
0.421275
0.440628
0.459563
0.47792
0.495538
0.512257
0.527921
0.542382
0.555501
0.567148
0.577208
0.585581
0.592188
0.59697
0.599898
0.600991
0.600377
0.598176
0.594557
0.589771
0.584163
0.578176
0.57236
0.567361
0.563896
0.562713
0.564507
0.569829
0.57896
0.591778
0.607635
0.625246
0.642733
0.657469
0.665906
0.663404
0.643554
0.596173
0.498244
0.253426
0.398655
0.417098
0.435214
0.452856
0.469878
0.486134
0.50148
0.515774
0.528879
0.540665
0.551005
0.559785
0.566901
0.572263
0.57587
0.577733
0.577853
0.5763
0.573213
0.568825
0.563479
0.557632
0.551865
0.546875
0.54344
0.542376
0.544447
0.550261
0.56013
0.573933
0.591022
0.610192
0.629398
0.645876
0.656027
0.655156
0.636821
0.59088
0.494552
0.253968
0.375333
0.392809
0.410047
0.426916
0.443284
0.459019
0.473989
0.488059
0.501098
0.512974
0.523548
0.532701
0.540362
0.546455
0.550868
0.553528
0.554399
0.553506
0.550955
0.546959
0.541855
0.536119
0.530366
0.525341
0.521887
0.520882
0.523151
0.529345
0.539798
0.554449
0.572763
0.593364
0.61413
0.632236
0.644049
0.644839
0.628143
0.583867
0.489506
0.253943
0.351461
0.367893
0.384175
0.40019
0.415823
0.430956
0.445472
0.459241
0.472132
0.484051
0.494907
0.504577
0.512911
0.519765
0.524996
0.528479
0.530128
0.529918
0.527916
0.524308
0.519428
0.513774
0.507997
0.502895
0.499371
0.498364
0.50074
0.507188
0.518064
0.533479
0.55278
0.574598
0.596762
0.616387
0.629822
0.632316
0.617403
0.575053
0.483068
0.253334
0.327249
0.342549
0.357783
0.372846
0.387639
0.402068
0.416042
0.429479
0.442295
0.454361
0.465555
0.475732
0.484727
0.492362
0.498447
0.502802
0.505279
0.505797
0.50437
0.501154
0.49648
0.490876
0.485035
0.47981
0.476162
0.47508
0.477459
0.483992
0.495181
0.511076
0.530953
0.553457
0.576716
0.597882
0.61299
0.617256
0.604299
0.564198
0.475092
0.252103
0.302967
0.317043
0.331142
0.345196
0.359129
0.372864
0.386325
0.399438
0.412118
0.424261
0.435743
0.446414
0.456091
0.464558
0.471577
0.4769
0.480304
0.481635
0.480845
0.478053
0.473583
0.468006
0.462053
0.456641
0.452805
0.451572
0.45384
0.460309
0.471533
0.487454
0.507227
0.529624
0.55336
0.575809
0.592645
0.598773
0.58803
0.550656
0.465142
0.250092
0.279268
0.292075
0.304997
0.31798
0.330969
0.343912
0.356756
0.369446
0.381915
0.39408
0.40583
0.417018
0.427448
0.436875
0.444998
0.451485
0.456013
0.458337
0.458329
0.45606
0.451824
0.44623
0.440091
0.434411
0.430319
0.428867
0.430992
0.437423
0.448584
0.464162
0.483367
0.505181
0.528205
0.55025
0.567883
0.575789
0.567451
0.533384
0.452404
0.246909
0.256481
0.267983
0.279674
0.29152
0.30349
0.315559
0.327702
0.339893
0.352097
0.364264
0.376313
0.388118
0.399487
0.410143
0.419714
0.42775
0.433792
0.437468
0.438501
0.43682
0.432827
0.427165
0.420794
0.414764
0.410263
0.408464
0.41039
0.41676
0.42782
0.443065
0.461594
0.482336
0.503833
0.524008
0.540285
0.548625
0.54238
0.511746
0.436061
0.241967
0.234862
0.245046
0.255478
0.266147
0.277049
0.288189
0.299578
0.311231
0.323164
0.335381
0.347859
0.360525
0.37321
0.385613
0.39726
0.407528
0.41574
0.421228
0.42349
0.422455
0.418836
0.413206
0.406361
0.399568
0.394267
0.391787
0.393189
0.399128
0.409679
0.424319
0.442097
0.461705
0.481362
0.499052
0.512911
0.519904
0.514288
0.486358
0.415898
0.234662
0.214625
0.223511
0.23269
0.242176
0.251996
0.262192
0.27282
0.283956
0.295689
0.308116
0.321317
0.335315
0.35
0.365029
0.379756
0.393237
0.40424
0.411778
0.415529
0.415576
0.412172
0.405941
0.397795
0.389474
0.382899
0.379481
0.380125
0.385324
0.394943
0.408414
0.424773
0.44266
0.460257
0.475563
0.486831
0.49169
0.485302
0.458567
0.392229
0.224369
0.195934
0.203572
0.211538
0.219874
0.22864
0.237924
0.247846
0.258564
0.27028
0.283237
0.29769
0.313819
0.331588
0.350538
0.369639
0.387105
0.401162
0.411038
0.41627
0.416527
0.411821
0.403267
0.392784
0.382622
0.374865
0.370781
0.370914
0.375389
0.383885
0.395756
0.410049
0.425488
0.440493
0.453222
0.461834
0.464226
0.456114
0.429121
0.365415
0.210299
0.178882
0.185351
0.192175
0.199426
0.207206
0.215661
0.224994
0.235485
0.247504
0.261523
0.278057
0.297502
0.319829
0.344226
0.368641
0.39028
0.407245
0.418478
0.423022
0.420395
0.412064
0.400143
0.387104
0.375532
0.367484
0.36371
0.36408
0.368231
0.375712
0.385855
0.397784
0.410378
0.422261
0.431822
0.437284
0.436515
0.425641
0.396838
0.332778
0.19344
0.163497
0.16889
0.174663
0.180918
0.187807
0.195549
0.204464
0.215009
0.227796
0.24364
0.263421
0.287727
0.316261
0.347144
0.376799
0.401685
0.419577
0.428845
0.428437
0.420036
0.406644
0.39087
0.375736
0.364249
0.35775
0.355799
0.357423
0.361881
0.368638
0.37711
0.386581
0.396098
0.40446
0.410212
0.411663
0.406728
0.3918
0.359737
0.29527
0.174317
0.149745
0.15416
0.158971
0.16432
0.170411
0.177557
0.186217
0.197078
0.211117
0.229603
0.253833
0.284441
0.320404
0.358055
0.391925
0.417828
0.432979
0.435535
0.426693
0.410562
0.391339
0.372373
0.357062
0.347786
0.344043
0.34444
0.347818
0.353186
0.359556
0.366545
0.373654
0.380033
0.384618
0.386182
0.383158
0.37347
0.353833
0.318479
0.257347
0.151841
0.137545
0.14106
0.144976
0.149465
0.154794
0.161375
0.169849
0.181199
0.196864
0.218684
0.248371
0.286365
0.330377
0.374438
0.410849
0.434212
0.441877
0.433569
0.413778
0.389143
0.365526
0.346906
0.335241
0.330293
0.329679
0.331571
0.3353
0.340375
0.345884
0.351303
0.356024
0.359325
0.360304
0.357851
0.350607
0.336823
0.314092
0.278974
0.225861
0.125652
0.126799
0.129468
0.132516
0.136137
0.140643
0.146548
0.154691
0.166425
0.183773
0.209265
0.244969
0.29095
0.343485
0.393987
0.431411
0.447967
0.442316
0.419268
0.387226
0.35557
0.331772
0.319337
0.316855
0.319359
0.321874
0.32306
0.324314
0.32667
0.329758
0.332654
0.334593
0.334872
0.332726
0.327282
0.317582
0.302622
0.281207
0.250806
0.203731
0.0970411
0.11743
0.119286
0.121456
0.124128
0.127624
0.132512
0.139813
0.151314
0.169877
0.19899
0.240734
0.294889
0.357075
0.415943
0.454356
0.458686
0.431319
0.389288
0.34548
0.310455
0.292561
0.293235
0.306916
0.322745
0.330261
0.328302
0.323146
0.319374
0.317778
0.317033
0.315929
0.313612
0.309448
0.302865
0.293341
0.280198
0.26192
0.234092
0.184818
0.0714146
0.109402
0.110472
0.111743
0.113352
0.115551
0.118833
0.124216
0.133879
0.152212
0.185414
0.232826
0.294272
0.366606
0.438775
0.484902
0.473232
0.412029
0.343318
0.286216
0.249252
0.237356
0.250805
0.285162
0.327338
0.350984
0.346915
0.333428
0.321687
0.314321
0.309922
0.306444
0.302521
0.297359
0.290406
0.281053
0.268065
0.248564
0.21623
0.160157
0.0558461
0.102729
0.103063
0.103457
0.103957
0.104651
0.10573
0.107669
0.111897
0.123922
0.168206
0.221783
0.287817
0.366619
0.450264
0.498534
0.478318
0.406177
0.261277
0.174552
0.143769
0.13842
0.146915
0.170568
0.221992
0.328496
0.33288
0.320207
0.307929
0.300404
0.295942
0.292052
0.287154
0.280487
0.271499
0.259334
0.24236
0.217697
0.181486
0.132482
0.0871687
)
;

boundaryField
{
    leftWall
    {
        type            kqRWallFunction;
        value           nonuniform 0();
    }
    rightWall
    {
        type            kqRWallFunction;
        value           nonuniform List<scalar> 
43
(
0.177449
0.17094
0.168187
0.17932
0.204205
0.229095
0.249984
0.259729
0.263173
0.263543
0.262223
0.260248
0.258347
0.25686
0.25584
0.255188
0.254746
0.254344
0.253822
0.253052
0.251962
0.250716
0.250987
0.252362
0.253426
0.253968
0.253943
0.253334
0.252103
0.250092
0.246909
0.241967
0.234662
0.224369
0.210299
0.19344
0.174317
0.151841
0.125652
0.0970411
0.0714146
0.0558461
0.0871687
)
;
    }
    lowerWall
    {
        type            kqRWallFunction;
        value           nonuniform 0();
    }
    atmosphere
    {
        type            inletOutlet;
        inletValue      uniform 0.1;
        value           nonuniform List<scalar> 
45
(
0.1
0.1
0.1
0.1
0.1
0.1
0.1
0.1
0.1
0.1
0.1
0.1
0.1
0.1
0.168206
0.221783
0.287817
0.366619
0.450264
0.498534
0.478318
0.406177
0.1
0.1
0.1
0.1
0.1
0.1
0.1
0.328496
0.33288
0.320207
0.307929
0.300404
0.295942
0.292052
0.287154
0.280487
0.271499
0.259334
0.24236
0.217697
0.181486
0.132482
0.1
)
;
    }
    defaultFaces
    {
        type            empty;
    }
    procBoundary3to1
    {
        type            processor;
        value           nonuniform List<scalar> 
45
(
0.417888
0.450172
0.484386
0.521244
0.560518
0.604218
0.651771
0.700258
0.748797
0.796879
0.844514
0.891593
0.938136
0.984444
1.02995
1.07306
1.1121
1.14492
1.16825
1.18019
1.18219
1.17641
1.16369
1.14222
1.11041
1.06966
1.02283
0.972659
0.92196
0.87364
0.829553
0.790069
0.754717
0.722974
0.69455
0.669172
0.646656
0.626963
0.609997
0.594791
0.577077
0.543725
0.475881
0.365066
0.181714
)
;
    }
    procBoundary3to2
    {
        type            processor;
        value           nonuniform List<scalar> 
43
(
0.389417
0.393191
0.398435
0.404638
0.411305
0.417979
0.424247
0.429754
0.434211
0.437392
0.439134
0.439335
0.437943
0.434948
0.430374
0.424272
0.416709
0.407762
0.397515
0.386054
0.373466
0.359845
0.345289
0.329911
0.31384
0.297228
0.280252
0.263114
0.246035
0.229375
0.213403
0.198284
0.184144
0.171062
0.15908
0.148204
0.138417
0.129691
0.121997
0.115308
0.109618
0.104938
0.101306
)
;
    }
}


// ************************************************************************* //
