/*--------------------------------*- C++ -*----------------------------------*\
| =========                 |                                                 |
| \\      /  F ield         | OpenFOAM: The Open Source CFD Toolbox           |
|  \\    /   O peration     | Version:  5.0                                   |
|   \\  /    A nd           | Web:      www.OpenFOAM.org                      |
|    \\/     M anipulation  |                                                 |
\*---------------------------------------------------------------------------*/
FoamFile
{
    version     2.0;
    format      ascii;
    class       volScalarField;
    location    "0.8";
    object      nut;
}
// * * * * * * * * * * * * * * * * * * * * * * * * * * * * * * * * * * * * * //

dimensions      [0 2 -1 0 0 0 0];

internalField   nonuniform List<scalar> 
1935
(
0.010687
0.0107359
0.0107772
0.0108219
0.0108768
0.0109454
0.0110284
0.0111245
0.0112318
0.0113478
0.0114698
0.0115951
0.0117212
0.011845
0.0119634
0.0120728
0.0121689
0.0122476
0.012304
0.0123339
0.0123331
0.0122987
0.012229
0.0121244
0.0119868
0.0118204
0.011631
0.0114258
0.0112129
0.010999
0.0107887
0.010586
0.0103941
0.0102147
0.0100487
0.00989633
0.00975769
0.00963237
0.00951914
0.00941525
0.00931486
0.00920804
0.00908131
0.0107271
0.0107968
0.0108973
0.0110273
0.010786
0.0108642
0.010972
0.0111084
0.0108365
0.0109226
0.0110371
0.0111791
0.010889
0.0109817
0.0111016
0.0112475
0.0109504
0.0110481
0.0111714
0.0113191
0.0110239
0.0111248
0.0112495
0.0113967
0.0111103
0.0112126
0.0113368
0.0114815
0.0112086
0.0113109
0.011433
0.0115733
0.0113171
0.0114183
0.0115369
0.0116718
0.0114336
0.011533
0.0116476
0.0117762
0.0115561
0.0116535
0.0117638
0.0118861
0.0116823
0.0117781
0.0118845
0.0120007
0.01181
0.011905
0.0120083
0.0121194
0.0119367
0.0120321
0.0121338
0.0122412
0.0120595
0.012157
0.0122588
0.0123645
0.012175
0.0122766
0.0123805
0.0124867
0.0122792
0.0123869
0.0124953
0.0126043
0.0123674
0.0124832
0.0125983
0.0127127
0.0124349
0.0125603
0.0126841
0.012806
0.0124763
0.0126126
0.0127464
0.0128777
0.012487
0.0126344
0.0127792
0.0129209
0.0124632
0.0126212
0.0127766
0.0129289
0.0124022
0.0125693
0.0127341
0.0128962
0.0123033
0.012477
0.0126492
0.0128191
0.0121679
0.0123448
0.0125212
0.0126961
0.0119994
0.0121755
0.0123522
0.0125282
0.0118034
0.0119742
0.0121467
0.0123194
0.0115868
0.0117476
0.0119111
0.0120756
0.011358
0.0115041
0.0116536
0.0118047
0.0111247
0.0112522
0.0113832
0.0115159
0.0108919
0.0109972
0.0111057
0.0112156
0.0106646
0.010745
0.0108277
0.0109108
0.0104467
0.0105005
0.010555
0.0106082
0.0102412
0.0102676
0.0102925
0.0103137
0.01005
0.0100494
0.0100445
0.0100329
0.00987457
0.00984853
0.00981505
0.00977128
0.00971608
0.00966767
0.00960834
0.00953477
0.00957558
0.0095094
0.00942885
0.00932998
0.00945339
0.00937599
0.00928119
0.00916435
0.00934848
0.00926868
0.00916973
0.00904631
0.00925635
0.00918512
0.00909526
0.00898121
0.00916732
0.0091167
0.00905152
0.00896701
0.00906618
0.00904697
0.00902174
0.00898833
0.0111953
0.0113999
0.0116262
0.0118678
0.0121193
0.0123765
0.0126345
0.0128888
0.0131359
0.0133707
0.0135866
0.0137783
0.0139399
0.0140661
0.014158
0.0142223
0.0142672
0.0142981
0.0143171
0.0143248
0.0143214
0.0143068
0.0142796
0.0142358
0.0141666
0.0140595
0.0138989
0.0136682
0.0133509
0.0129318
0.0123956
0.0117265
0.0109109
0.0099423
0.0088304
0.00759516
0.00619557
0.00447345
0.00234186
0.000310741
0.0112826
0.0114934
0.011726
0.011974
0.012231
0.0124911
0.0127483
0.0129974
0.013234
0.0134527
0.0136489
0.013819
0.0139598
0.0140697
0.0141519
0.0142127
0.0142589
0.0142956
0.0143253
0.0143487
0.0143647
0.0143711
0.0143638
0.0143365
0.0142786
0.0141763
0.0140139
0.0137751
0.0134442
0.0130057
0.0124439
0.0117429
0.0108887
0.00987734
0.00872656
0.00747237
0.00604795
0.00426045
0.00213873
0.000303526
0.0113579
0.0115727
0.0118084
0.0120588
0.0123169
0.012576
0.0128296
0.0130721
0.0132985
0.0135039
0.0136856
0.0138409
0.013968
0.0140683
0.0141461
0.0142075
0.0142582
0.014303
0.0143443
0.0143826
0.0144161
0.0144404
0.0144496
0.0144356
0.0143867
0.0142885
0.0141256
0.0138823
0.0135435
0.0130939
0.0125176
0.0117981
0.0109202
0.0098784
0.00869012
0.00739507
0.00590243
0.00399891
0.00186987
0.000307575
0.0114289
0.0116447
0.0118801
0.0121287
0.0123837
0.0126381
0.0128852
0.0131194
0.0133359
0.0135308
0.0137018
0.0138471
0.0139658
0.0140613
0.0141387
0.0142034
0.0142607
0.0143147
0.0143678
0.0144198
0.0144682
0.0145072
0.0145298
0.0145269
0.014486
0.0143931
0.0142331
0.013991
0.0136521
0.0132018
0.0126245
0.0119036
0.0110228
0.00997228
0.00875917
0.00741004
0.00582636
0.00381256
0.00163697
0.000331604
0.0115005
0.0117143
0.0119459
0.012189
0.0124371
0.0126835
0.0129217
0.0131462
0.013353
0.013539
0.0137017
0.0138397
0.0139537
0.0140477
0.0141269
0.0141964
0.0142609
0.0143241
0.0143879
0.0144518
0.0145125
0.0145635
0.0145974
0.0146046
0.0145727
0.0144877
0.0143352
0.0141008
0.0137704
0.0133299
0.0127648
0.0120595
0.0111982
0.0101678
0.00896418
0.00759069
0.00596618
0.0039316
0.00171228
0.000360547
0.0115755
0.0117844
0.0120091
0.0122437
0.0124819
0.0127176
0.012945
0.0131589
0.0133559
0.0135334
0.0136889
0.0138214
0.0139326
0.0140267
0.0141087
0.0141831
0.0142544
0.0143257
0.0143985
0.014472
0.0145427
0.0146037
0.014648
0.0146655
0.0146441
0.0145704
0.0144303
0.0142098
0.0138953
0.0134735
0.0129305
0.0122518
0.0114242
0.0104346
0.00927323
0.00793034
0.00635231
0.00440705
0.00218365
0.000377873
0.0116554
0.0118569
0.0120721
0.0122957
0.012522
0.0127453
0.0129604
0.013163
0.0133499
0.0135186
0.0136671
0.0137949
0.0139042
0.013999
0.0140835
0.0141622
0.014239
0.0143168
0.0143966
0.0144776
0.0145561
0.014626
0.0146801
0.0147085
0.0146996
0.0146402
0.0145163
0.0143145
0.0140214
0.0136241
0.0131097
0.0124654
0.0116784
0.0107356
0.00962301
0.00831913
0.00676718
0.00485677
0.00254144
0.000385496
0.0117405
0.0119327
0.0121368
0.0123479
0.0125608
0.0127705
0.0129725
0.0131631
0.0133395
0.0134991
0.0136404
0.0137638
0.0138712
0.0139662
0.0140526
0.0141345
0.0142153
0.0142977
0.0143826
0.0144691
0.0145539
0.0146315
0.014695
0.0147347
0.0147395
0.0146965
0.0145921
0.0144129
0.0141454
0.0137769
0.0132946
0.012686
0.0119379
0.0110352
0.00995775
0.00867244
0.00711409
0.00516892
0.00273561
0.000383898
0.0118309
0.0120126
0.0122045
0.0124021
0.012601
0.0127966
0.0129852
0.0131634
0.0133287
0.0134791
0.0136135
0.0137323
0.0138375
0.0139319
0.0140191
0.0141027
0.0141859
0.014271
0.0143592
0.0144495
0.0145394
0.014624
0.0146965
0.014748
0.0147674
0.0147422
0.0146591
0.0145044
0.0142645
0.0139262
0.0134765
0.0129019
0.0121871
0.0113132
0.0102531
0.008964
0.00737425
0.00537077
0.00284363
0.000382609
0.0119267
0.0120973
0.0122765
0.0124604
0.0126451
0.0128267
0.0130017
0.0131675
0.0133217
0.0134629
0.0135903
0.0137043
0.0138066
0.0138998
0.0139869
0.0140711
0.0141554
0.014242
0.014332
0.0144251
0.0145191
0.0146098
0.0146908
0.0147536
0.0147875
0.0147803
0.0147187
0.0145887
0.0143764
0.014068
0.0136492
0.013105
0.012417
0.0115619
0.0105063
0.00920078
0.00757087
0.00550774
0.00290783
0.000381003
0.0120277
0.0121873
0.012354
0.0125245
0.0126953
0.0128632
0.0130252
0.013179
0.0133225
0.0134547
0.013575
0.013684
0.0137831
0.0138743
0.0139605
0.0140445
0.0141291
0.0142163
0.0143074
0.0144024
0.0144995
0.0145952
0.0146835
0.0147565
0.0148039
0.0148136
0.0147724
0.0146661
0.0144802
0.0141997
0.013809
0.0132907
0.0126236
0.01178
0.0107219
0.0093962
0.0077276
0.00561179
0.00295344
0.000379078
0.0121341
0.0122831
0.012438
0.0125958
0.0127537
0.0129088
0.0130586
0.013201
0.0133346
0.0134583
0.0135719
0.0136758
0.0137713
0.0138603
0.0139452
0.0140285
0.0141128
0.0141999
0.0142914
0.0143873
0.0144865
0.0145857
0.0146797
0.014761
0.0148198
0.0148444
0.0148216
0.0147368
0.0145748
0.0143195
0.0139535
0.013457
0.0128059
0.0119692
0.0109061
0.00956129
0.00785979
0.00570025
0.00299326
0.000377358
0.0122455
0.0123852
0.0125295
0.012676
0.0128222
0.0129657
0.0131044
0.0132367
0.0133612
0.0134773
0.0135846
0.0136838
0.0137759
0.0138626
0.013946
0.0140282
0.0141117
0.0141983
0.0142893
0.0143851
0.0144848
0.0145858
0.0146832
0.0147702
0.0148376
0.0148742
0.0148668
0.0148006
0.0146595
0.014426
0.014081
0.0136024
0.0129637
0.0121316
0.0110635
0.0097032
0.00797582
0.00578124
0.00303262
0.000376106
0.0123616
0.0124937
0.0126291
0.0127659
0.0129021
0.0130357
0.013165
0.0132886
0.0134053
0.0135148
0.0136168
0.0137118
0.0138008
0.0138853
0.013967
0.014048
0.0141302
0.0142155
0.014305
0.0143993
0.0144978
0.0145981
0.0146961
0.0147856
0.0148583
0.0149033
0.0149076
0.0148563
0.0147324
0.0145171
0.0141895
0.0137256
0.0130968
0.0122685
0.0111969
0.00982566
0.00807937
0.00585757
0.00307285
0.000375324
0.0124812
0.0126078
0.0127365
0.0128658
0.0129941
0.0131199
0.0132417
0.0133583
0.0134689
0.0135731
0.0136709
0.0137626
0.013849
0.0139315
0.0140116
0.0140909
0.0141712
0.0142542
0.0143408
0.0144318
0.0145266
0.0146234
0.0147187
0.0148071
0.0148809
0.0149302
0.0149421
0.0149016
0.0147908
0.01459
0.0142764
0.0138243
0.0132041
0.0123798
0.0113073
0.00992976
0.00817114
0.00592923
0.00311347
0.000374907
0.0126022
0.0127259
0.0128506
0.012975
0.0130979
0.0132182
0.0133347
0.0134464
0.0135528
0.0136533
0.0137481
0.0138374
0.0139219
0.0140026
0.0140808
0.014158
0.0142355
0.0143147
0.0143967
0.0144819
0.0145702
0.01466
0.0147487
0.0148318
0.0149025
0.0149515
0.0149665
0.0149323
0.0148307
0.0146406
0.014338
0.0138959
0.0132835
0.0124643
0.0113938
0.0100149
0.00825017
0.00599486
0.0031533
0.000374718
0.0127213
0.0128451
0.0129686
0.013091
0.0132114
0.0133288
0.0134425
0.0135516
0.0136557
0.0137543
0.0138474
0.0139353
0.0140184
0.0140975
0.0141735
0.0142476
0.0143209
0.0143946
0.0144695
0.0145462
0.0146246
0.0147036
0.0147816
0.0148548
0.0149177
0.0149618
0.0149753
0.0149431
0.0148467
0.014664
0.01437
0.0139366
0.0133322
0.0125199
0.011455
0.0100795
0.0083147
0.00605258
0.00319103
0.000374621
0.0128339
0.0129608
0.0130863
0.0132097
0.0133304
0.0134479
0.0135613
0.0136702
0.013774
0.0138724
0.0139652
0.0140525
0.0141346
0.0142119
0.0142851
0.0143549
0.0144223
0.0144881
0.0145532
0.0146181
0.0146827
0.0147468
0.0148096
0.0148684
0.0149188
0.0149533
0.014961
0.014927
0.0148323
0.0146544
0.0143674
0.0139423
0.0133469
0.012544
0.0114884
0.0101215
0.00836265
0.00610042
0.00322538
0.00037449
0.0129341
0.013067
0.0131974
0.0133248
0.0134488
0.013569
0.0136848
0.0137956
0.0139011
0.0140007
0.0140943
0.0141817
0.0142629
0.014338
0.0144074
0.0144714
0.0145307
0.014586
0.0146379
0.0146873
0.0147341
0.0147792
0.0148223
0.0148624
0.014896
0.0149168
0.0149148
0.0148756
0.0147802
0.0146055
0.0143248
0.0139086
0.0133241
0.0125338
0.0114918
0.0101386
0.00839179
0.00613639
0.00325516
0.000374219
0.0130148
0.0131562
0.013294
0.0134281
0.013558
0.0136834
0.0138038
0.0139186
0.0140273
0.0141295
0.0142247
0.0143124
0.0143924
0.0144645
0.0145286
0.0145848
0.0146335
0.0146752
0.0147106
0.0147406
0.0147657
0.0147875
0.014807
0.0148242
0.0148372
0.014841
0.0148265
0.0147799
0.0146823
0.0145103
0.0142366
0.0138311
0.0132604
0.0124863
0.0114626
0.0101285
0.00839987
0.00615845
0.00327914
0.000373722
0.0130684
0.01322
0.0133673
0.0135101
0.0136479
0.0137804
0.013907
0.0140272
0.0141404
0.0142458
0.0143428
0.0144306
0.0145087
0.0145765
0.0146335
0.0146796
0.0147149
0.0147398
0.0147551
0.0147617
0.0147612
0.014756
0.0147483
0.0147395
0.0147291
0.0147135
0.0146848
0.01463
0.0145303
0.014362
0.0140973
0.0137053
0.0131521
0.0123989
0.0113983
0.0100887
0.00838441
0.00616421
0.00329574
0.000372953
0.0130873
0.01325
0.0134078
0.0135603
0.0137072
0.0138479
0.0139817
0.0141081
0.014226
0.0143347
0.0144331
0.0145202
0.014595
0.0146567
0.0147044
0.0147376
0.0147564
0.0147611
0.0147526
0.0147322
0.0147025
0.0146671
0.0146294
0.0145923
0.0145568
0.0145209
0.014478
0.0144158
0.0143157
0.0141537
0.0139015
0.0135273
0.0129962
0.0122688
0.0112966
0.0100168
0.00834245
0.00615017
0.00330185
0.000372012
0.013065
0.0132384
0.0134065
0.0135689
0.0137249
0.0138738
0.0140148
0.014147
0.0142692
0.0143803
0.0144789
0.0145637
0.0146332
0.0146863
0.0147217
0.0147389
0.0147376
0.0147184
0.0146822
0.0146313
0.0145697
0.0145017
0.0144323
0.0143658
0.0143051
0.0142496
0.0141942
0.0141272
0.0140303
0.0138791
0.0136442
0.0132931
0.0127897
0.0120934
0.0111549
0.00991006
0.00827034
0.00611081
0.00328941
0.000372061
0.0129965
0.013179
0.0133562
0.0135272
0.0136912
0.0138472
0.0139941
0.0141307
0.0142556
0.0143672
0.0144638
0.0145436
0.0146048
0.0146459
0.0146654
0.0146626
0.0146371
0.0145897
0.0145222
0.0144381
0.0143422
0.0142401
0.0141384
0.0140431
0.0139586
0.0138862
0.0138219
0.0137548
0.0136666
0.0135322
0.0133211
0.0129993
0.0125297
0.0118698
0.0109703
0.00976627
0.00816809
0.00604805
0.0032613
0.000373032
0.0128792
0.0130681
0.0132516
0.0134288
0.0135983
0.013759
0.0139093
0.0140477
0.0141724
0.0142813
0.0143724
0.0144434
0.0144921
0.0145166
0.0145154
0.0144875
0.0144329
0.0143531
0.0142511
0.0141313
0.0139997
0.0138633
0.0137302
0.0136082
0.0135034
0.0134187
0.0133513
0.0132908
0.0132185
0.0131083
0.0129283
0.0126422
0.0122132
0.0115992
0.0107479
0.0095927
0.00804229
0.00596804
0.00322394
0.000373789
0.0127132
0.0129046
0.0130908
0.0132703
0.0134417
0.0136033
0.0137532
0.0138893
0.0140094
0.014111
0.0141915
0.0142482
0.0142785
0.0142803
0.0142519
0.014193
0.0141044
0.0139884
0.0138488
0.0136915
0.0135237
0.0133542
0.0131924
0.0130479
0.0129285
0.0128383
0.0127755
0.0127299
0.0126822
0.0126044
0.0124633
0.0122248
0.0118481
0.011288
0.0104915
0.00939089
0.00789417
0.00587224
0.00317876
0.000374162
0.0125016
0.0126905
0.0128745
0.0130516
0.01322
0.0133773
0.0135214
0.0136497
0.0137592
0.013847
0.01391
0.0139449
0.013949
0.0139205
0.0138581
0.013762
0.0136341
0.0134776
0.0132981
0.0131025
0.0128999
0.0127004
0.0125151
0.0123548
0.0122286
0.0121417
0.012093
0.0120721
0.0120581
0.0120228
0.0119347
0.0117538
0.0114373
0.0109382
0.0102025
0.00916193
0.00772451
0.00576129
0.00312622
0.000374117
0.0122498
0.0124306
0.0126066
0.0127754
0.0129346
0.0130814
0.0132129
0.013326
0.0134171
0.0134826
0.013519
0.0135232
0.0134925
0.0134252
0.013321
0.013181
0.0130084
0.0128083
0.0125877
0.0123555
0.0121221
0.0118989
0.011698
0.0115311
0.0114083
0.0113353
0.011311
0.0113248
0.0113544
0.011375
0.0113492
0.0112343
0.0109847
0.0105523
0.00988231
0.00890663
0.00753359
0.00563523
0.00306631
0.00037364
0.0119653
0.0121319
0.0122935
0.0124472
0.0125899
0.0127183
0.0128289
0.0129178
0.0129809
0.0130143
0.0130144
0.0129777
0.0129022
0.0127869
0.0126327
0.0124426
0.0122217
0.0119772
0.011718
0.0114547
0.0111986
0.0109619
0.0107569
0.0105954
0.0104875
0.0104393
0.0104493
0.0105061
0.010591
0.0106752
0.0107181
0.0106737
0.010495
0.0101331
0.00953231
0.00862483
0.00732037
0.00549281
0.00299832
0.0003727
0.011657
0.0118029
0.0119429
0.0120737
0.0121917
0.0122928
0.012373
0.0124277
0.0124525
0.0124429
0.0123953
0.0123068
0.0121761
0.012004
0.0117935
0.0115501
0.0112816
0.0109975
0.0107084
0.0104257
0.0101609
0.0099255
0.00973086
0.00958809
0.00950698
0.00949303
0.00954484
0.00965112
0.00979549
0.00994559
0.0100575
0.0100826
0.00997382
0.00968218
0.00915117
0.0083131
0.00708036
0.00532985
0.00291985
0.000371179
0.0113319
0.0114506
0.0115619
0.0116621
0.0117469
0.0118116
0.0118514
0.0118613
0.0118362
0.011772
0.0116652
0.0115144
0.0113201
0.0110859
0.0108179
0.0105252
0.0102183
0.00990868
0.00960737
0.00932496
0.0090712
0.00885518
0.00868656
0.00857505
0.00852973
0.00855597
0.00865292
0.00881041
0.00901196
0.00922255
0.00939624
0.0094834
0.00943554
0.00920403
0.00873581
0.00796488
0.00680543
0.00513875
0.00282633
0.000368792
0.0109975
0.011083
0.011159
0.011221
0.0112641
0.0112829
0.011272
0.011226
0.0111399
0.0110099
0.0108344
0.010614
0.010353
0.0100591
0.00974282
0.00941676
0.00909356
0.00878458
0.00849844
0.00824179
0.008021
0.00784178
0.00771181
0.00763958
0.00763361
0.00769993
0.00783918
0.00804245
0.00829188
0.00855057
0.00877156
0.00890497
0.00890207
0.00871441
0.0082927
0.00757863
0.00649064
0.00491322
0.00271309
0.000365118
0.0106612
0.0107085
0.010743
0.0107596
0.0107528
0.0107166
0.0106451
0.0105329
0.0103758
0.0101719
0.0099223
0.00963242
0.00931184
0.00897386
0.00863371
0.00830602
0.00800242
0.00772947
0.00748918
0.00728225
0.00711169
0.00698061
0.00689416
0.006861
0.00689041
0.00698961
0.00716047
0.0073958
0.00767508
0.00796132
0.00820848
0.00836736
0.0083893
0.00822718
0.00783603
0.00716435
0.00613951
0.00465307
0.0025784
0.000359716
0.0103301
0.010335
0.0103228
0.0102878
0.0102237
0.0101243
0.00998361
0.00979701
0.00956241
0.00928154
0.00896113
0.00861346
0.0082555
0.00790628
0.00758321
0.0072983
0.00705494
0.00684979
0.00667737
0.00653405
0.00641855
0.00633319
0.00628345
0.00628023
0.00633515
0.00645594
0.00664385
0.0068923
0.00717804
0.00746592
0.00771267
0.00787175
0.00789674
0.00774304
0.00736871
0.00672803
0.00575774
0.00436075
0.00242232
0.000352075
0.0100111
0.00997084
0.00990814
0.00981659
0.00968949
0.00952037
0.00930408
0.00903818
0.00872476
0.00837209
0.00799559
0.00761695
0.00726054
0.00694766
0.00669098
0.00649035
0.00633501
0.00621207
0.00611038
0.00602285
0.00594708
0.00588855
0.00585909
0.00587333
0.00594394
0.00607685
0.00627015
0.00651293
0.0067825
0.00704706
0.00726785
0.00740287
0.00741001
0.0072484
0.00687877
0.00626026
0.00533836
0.00403001
0.00224035
0.000341413
0.00971124
0.00962488
0.00950966
0.00935852
0.00916442
0.00892133
0.00862597
0.00828003
0.00789297
0.00748327
0.00707818
0.00670937
0.00640449
0.0061778
0.0060257
0.00592908
0.00586383
0.00581021
0.00575448
0.00569054
0.00562393
0.00556808
0.00554133
0.00556183
0.0056416
0.00578064
0.00597111
0.00619514
0.0064324
0.00665581
0.00683244
0.00692588
0.00689891
0.00671489
0.00633776
0.00573014
0.00484653
0.00361487
0.00196361
0.000327803
0.00943841
0.00930711
0.00913955
0.00892793
0.00866507
0.0083461
0.00797088
0.00754763
0.00709797
0.00665434
0.00625759
0.00594578
0.00573994
0.0056342
0.00559846
0.00559471
0.00559134
0.00556715
0.00551178
0.0054314
0.00534313
0.00526786
0.00522975
0.00524925
0.00533266
0.00547207
0.00565201
0.00585172
0.0060484
0.00622122
0.00634351
0.0063847
0.00631261
0.00609479
0.00569862
0.00509203
0.00423693
0.00308392
0.00162407
0.000311867
0.00920167
0.00902936
0.00881235
0.00854184
0.00821059
0.00781587
0.00736353
0.00687291
0.00637996
0.00593422
0.00558707
0.00537247
0.00529079
0.0053061
0.00536337
0.00541458
0.00542615
0.00538004
0.00527991
0.00514775
0.00501175
0.00490052
0.00484283
0.00485737
0.00494056
0.00507571
0.00524179
0.00541593
0.00557085
0.00569206
0.00575852
0.00574477
0.00562333
0.00536684
0.00494831
0.00434243
0.00352543
0.00248845
0.00130094
0.000292076
0.00901213
0.00880749
0.00854921
0.00822692
0.00783303
0.00736723
0.00684291
0.00629356
0.00577423
0.00535154
0.00508033
0.00497855
0.00501726
0.00513071
0.00524517
0.00530637
0.00528439
0.00517231
0.00499264
0.00478442
0.00458885
0.00444166
0.00436911
0.00438035
0.00446036
0.00458331
0.00472557
0.0048666
0.00497836
0.00504974
0.00506287
0.00499714
0.00483058
0.00454179
0.00411251
0.00353085
0.00279807
0.00194544
0.00106261
0.000267151
0.00888348
0.00866184
0.00837805
0.00801877
0.00757395
0.0070437
0.00644856
0.00583921
0.00529537
0.00490237
0.00471111
0.00471464
0.00485395
0.00503832
0.00517781
0.00521011
0.00511283
0.00490178
0.00462245
0.00433344
0.0040898
0.00393104
0.00387189
0.00389842
0.00397733
0.00407508
0.00417294
0.00426126
0.00432114
0.00434118
0.00430555
0.0041977
0.00400193
0.00370563
0.00330268
0.00279773
0.00221123
0.0015775
0.000933904
0.000236262
0.00882776
0.00861416
0.00833316
0.00796612
0.00749555
0.00691414
0.00624186
0.0055467
0.00494697
0.00456274
0.00443525
0.004522
0.00473862
0.00497794
0.0051255
0.00509864
0.00488762
0.00455456
0.0041761
0.00382917
0.00357903
0.00345674
0.00345585
0.00353232
0.00362561
0.00368805
0.00371773
0.00372874
0.00372535
0.00369384
0.00361937
0.00348884
0.00329279
0.00302694
0.00269429
0.00230487
0.00187345
0.0014088
0.000894424
0.000203
0.0088504
0.00868303
0.00845394
0.00813903
0.00770764
0.00712785
0.00638672
0.00553926
0.00476659
0.00431651
0.00422682
0.00437825
0.0046601
0.00495466
0.00511568
0.00500844
0.00464036
0.004136
0.00366568
0.00332501
0.00312493
0.00304441
0.00309128
0.00325271
0.00343452
0.00348986
0.00345887
0.00339542
0.00333002
0.0032541
0.003155
0.00302126
0.002846
0.00262739
0.00236828
0.00207337
0.00174358
0.00136632
0.000900694
0.000178781
0.00894106
0.00887105
0.00877092
0.00862426
0.00840304
0.00805697
0.00749421
0.00656745
0.0052161
0.00417759
0.0040936
0.00428701
0.00460915
0.00494586
0.00509444
0.00491909
0.00438327
0.00327215
0.00295782
0.00328773
0.00357126
0.00339958
0.00288289
0.00258088
0.00317567
0.00333212
0.00331325
0.003229
0.0031312
0.00303042
0.0029187
0.0027856
0.00262492
0.00243469
0.00221526
0.00196625
0.00168198
0.0013412
0.000862362
0.000222263
)
;

boundaryField
{
    leftWall
    {
        type            nutkWallFunction;
        Cmu             0.09;
        kappa           0.41;
        E               9.8;
        value           nonuniform 0();
    }
    rightWall
    {
        type            nutkWallFunction;
        Cmu             0.09;
        kappa           0.41;
        E               9.8;
        value           nonuniform List<scalar> 
43
(
3.44866e-05
3.38974e-05
3.36815e-05
3.56047e-05
3.90915e-05
4.17657e-05
4.38861e-05
4.48411e-05
4.51738e-05
4.52094e-05
4.50822e-05
4.48914e-05
4.4707e-05
4.45621e-05
4.44624e-05
4.43987e-05
4.43554e-05
4.43159e-05
4.42647e-05
4.41889e-05
4.40816e-05
4.39585e-05
4.39854e-05
4.41211e-05
4.42257e-05
4.4279e-05
4.42766e-05
4.42167e-05
4.40955e-05
4.38968e-05
4.35804e-05
4.30845e-05
4.23411e-05
4.12711e-05
3.97624e-05
3.78778e-05
3.56241e-05
3.27885e-05
2.91869e-05
2.50913e-05
2.00301e-05
1.66107e-05
2.29578e-05
)
;
    }
    lowerWall
    {
        type            nutkWallFunction;
        Cmu             0.09;
        kappa           0.41;
        E               9.8;
        value           nonuniform 0();
    }
    atmosphere
    {
        type            calculated;
        value           nonuniform List<scalar> 
45
(
0.009
0.009
0.009
0.009
0.009
0.009
0.009
0.009
0.009
0.009
0.009
0.009
0.009
0.009
0.00417759
0.0040936
0.00428701
0.00460915
0.00494586
0.00509444
0.00491909
0.00438327
0.009
0.009
0.009
0.009
0.009
0.009
0.009
0.00317567
0.00333212
0.00331325
0.003229
0.0031312
0.00303042
0.0029187
0.0027856
0.00262492
0.00243469
0.00221526
0.00196625
0.00168198
0.0013412
0.000862362
0.009
)
;
    }
    defaultFaces
    {
        type            empty;
    }
    procBoundary3to1
    {
        type            processor;
        value           nonuniform List<scalar> 
45
(
0.0106175
0.0106472
0.0107084
0.0108019
0.0109255
0.0110867
0.0112831
0.0115001
0.0117317
0.0119736
0.0122246
0.0124809
0.0127393
0.0129974
0.0132505
0.0134908
0.0137109
0.0139017
0.0140532
0.0141624
0.0142363
0.0142839
0.0143116
0.0143205
0.0143115
0.0142873
0.0142499
0.0142007
0.0141377
0.0140548
0.0139409
0.0137815
0.0135599
0.0132593
0.0128646
0.0123606
0.0117316
0.0109628
0.0100434
0.00897165
0.00774879
0.0063389
0.00462032
0.00246678
0.000317967
)
;
    }
    procBoundary3to2
    {
        type            processor;
        value           nonuniform List<scalar> 
43
(
0.010677
0.0107144
0.0107456
0.0107812
0.0108284
0.0108904
0.0109679
0.0110596
0.0111632
0.0112758
0.0113946
0.0115164
0.0116381
0.0117565
0.011868
0.0119689
0.0120552
0.0121226
0.012167
0.0121846
0.0121721
0.0121274
0.0120499
0.0119406
0.0118023
0.0116395
0.0114585
0.0112662
0.0110705
0.0108768
0.0106891
0.0105108
0.0103439
0.010189
0.0100462
0.00991471
0.00979341
0.00968086
0.00957455
0.0094706
0.00936241
0.00924036
0.00909304
)
;
    }
}


// ************************************************************************* //
