/*--------------------------------*- C++ -*----------------------------------*\
| =========                 |                                                 |
| \\      /  F ield         | OpenFOAM: The Open Source CFD Toolbox           |
|  \\    /   O peration     | Version:  5.0                                   |
|   \\  /    A nd           | Web:      www.OpenFOAM.org                      |
|    \\/     M anipulation  |                                                 |
\*---------------------------------------------------------------------------*/
FoamFile
{
    version     2.0;
    format      ascii;
    class       volVectorField;
    location    "0.8";
    object      U;
}
// * * * * * * * * * * * * * * * * * * * * * * * * * * * * * * * * * * * * * //

dimensions      [0 1 -1 0 0 0 0];

internalField   nonuniform List<vector> 
1935
(
(0.276475 0.392525 0)
(0.266097 0.388082 0)
(0.25337 0.384374 0)
(0.239756 0.381489 0)
(0.226446 0.379278 0)
(0.214336 0.37742 0)
(0.204042 0.375492 0)
(0.195915 0.373035 0)
(0.190077 0.3696 0)
(0.186449 0.364786 0)
(0.184802 0.358266 0)
(0.184793 0.349797 0)
(0.186006 0.339229 0)
(0.187993 0.326501 0)
(0.190298 0.311637 0)
(0.192489 0.294732 0)
(0.194168 0.275941 0)
(0.194983 0.255469 0)
(0.194639 0.233556 0)
(0.192894 0.210472 0)
(0.189566 0.186505 0)
(0.18453 0.161958 0)
(0.177725 0.137148 0)
(0.169153 0.112397 0)
(0.158883 0.0880368 0)
(0.147054 0.0643989 0)
(0.133877 0.0418119 0)
(0.119629 0.020592 0)
(0.10465 0.00103258 0)
(0.0893252 -0.0166092 0)
(0.0740662 -0.0321284 0)
(0.0592922 -0.0453856 0)
(0.0454093 -0.0563172 0)
(0.0327902 -0.0649442 0)
(0.021755 -0.0713752 0)
(0.0125527 -0.075804 0)
(0.00534467 -0.0785017 0)
(0.000189242 -0.0798018 0)
(-0.00297154 -0.0800797 0)
(-0.00431983 -0.0797246 0)
(-0.00416008 -0.0791029 0)
(-0.00290091 -0.0784987 0)
(-0.0010087 -0.0781932 0)
(0.279479 0.400908 0)
(0.279574 0.40532 0)
(0.276152 0.405485 0)
(0.268643 0.401137 0)
(0.268687 0.399261 0)
(0.268574 0.407045 0)
(0.265218 0.41125 0)
(0.258054 0.41151 0)
(0.25527 0.398214 0)
(0.254644 0.409187 0)
(0.251003 0.417183 0)
(0.243833 0.421804 0)
(0.241003 0.397884 0)
(0.23991 0.411861 0)
(0.236048 0.423391 0)
(0.228975 0.432062 0)
(0.227286 0.398081 0)
(0.226 0.414833 0)
(0.222233 0.429588 0)
(0.215628 0.441923 0)
(0.215136 0.39842 0)
(0.214057 0.417659 0)
(0.210829 0.435261 0)
(0.205182 0.450795 0)
(0.205215 0.398421 0)
(0.204786 0.419803 0)
(0.202575 0.439821 0)
(0.19839 0.458033 0)
(0.197872 0.397576 0)
(0.19852 0.420717 0)
(0.197769 0.44269 0)
(0.195494 0.463035 0)
(0.193182 0.395402 0)
(0.195275 0.419897 0)
(0.196354 0.443351 0)
(0.196343 0.46529 0)
(0.191 0.391481 0)
(0.194828 0.41692 0)
(0.19801 0.441391 0)
(0.200509 0.46441 0)
(0.191014 0.385483 0)
(0.196773 0.411463 0)
(0.202232 0.436509 0)
(0.207377 0.460135 0)
(0.192795 0.377173 0)
(0.200589 0.403313 0)
(0.208397 0.428526 0)
(0.21622 0.45233 0)
(0.195845 0.366424 0)
(0.20569 0.39237 0)
(0.215827 0.41738 0)
(0.226265 0.44098 0)
(0.199637 0.353202 0)
(0.211471 0.378637 0)
(0.223837 0.403118 0)
(0.236747 0.426184 0)
(0.203654 0.337565 0)
(0.217348 0.362212 0)
(0.231775 0.385882 0)
(0.246945 0.408133 0)
(0.207406 0.319647 0)
(0.22278 0.34327 0)
(0.239049 0.365894 0)
(0.256221 0.3871 0)
(0.210457 0.299644 0)
(0.227292 0.322049 0)
(0.245147 0.343438 0)
(0.264026 0.363415 0)
(0.212426 0.277797 0)
(0.230478 0.298833 0)
(0.249642 0.318839 0)
(0.269918 0.337447 0)
(0.212998 0.254385 0)
(0.232008 0.273935 0)
(0.252194 0.292451 0)
(0.273548 0.309591 0)
(0.211921 0.229708 0)
(0.231625 0.247691 0)
(0.252543 0.264643 0)
(0.274659 0.280248 0)
(0.209008 0.204083 0)
(0.229139 0.220444 0)
(0.2505 0.235787 0)
(0.273072 0.249821 0)
(0.204132 0.177839 0)
(0.224424 0.192547 0)
(0.245949 0.206258 0)
(0.268679 0.218706 0)
(0.197231 0.15131 0)
(0.217423 0.164355 0)
(0.238835 0.176431 0)
(0.261437 0.187295 0)
(0.18831 0.12484 0)
(0.208143 0.136226 0)
(0.229175 0.146679 0)
(0.251369 0.155976 0)
(0.177441 0.0987745 0)
(0.196663 0.108523 0)
(0.217051 0.117376 0)
(0.238568 0.125134 0)
(0.164772 0.0734629 0)
(0.183137 0.0816074 0)
(0.202626 0.0888994 0)
(0.223201 0.0951571 0)
(0.150525 0.0492513 0)
(0.167799 0.0558417 0)
(0.186143 0.0616233 0)
(0.205522 0.0664316 0)
(0.134996 0.0264757 0)
(0.15096 0.0315797 0)
(0.167929 0.0359179 0)
(0.18587 0.039342 0)
(0.118551 0.00545197 0)
(0.13301 0.0091576 0)
(0.148396 0.0121387 0)
(0.164677 0.014262 0)
(0.101612 -0.0135374 0)
(0.114406 -0.0111179 0)
(0.128032 -0.00938414 0)
(0.14246 -0.00845564 0)
(0.0846361 -0.0302605 0)
(0.0956488 -0.0289884 0)
(0.107382 -0.0283654 0)
(0.119807 -0.0284984 0)
(0.0680962 -0.0445518 0)
(0.077265 -0.0442613 0)
(0.087026 -0.0445835 0)
(0.0973504 -0.0456144 0)
(0.0524576 -0.0563247 0)
(0.059781 -0.0568251 0)
(0.0675545 -0.0578995 0)
(0.0757471 -0.0596337 0)
(0.0381553 -0.0655839 0)
(0.0436974 -0.0666652 0)
(0.0495394 -0.0682756 0)
(0.0556448 -0.0704914 0)
(0.02557 -0.0724314 0)
(0.0294619 -0.0738735 0)
(0.0335026 -0.0757899 0)
(0.0376478 -0.0782468 0)
(0.0150067 -0.0770667 0)
(0.0174428 -0.0786527 0)
(0.0198852 -0.0806443 0)
(0.0222801 -0.0830965 0)
(0.00667362 -0.079781 0)
(0.00790267 -0.0813121 0)
(0.00901558 -0.0831642 0)
(0.00994786 -0.085379 0)
(0.000661728 -0.0809426 0)
(0.000973672 -0.082255 0)
(0.00107775 -0.0837884 0)
(0.000900374 -0.0855678 0)
(-0.00307251 -0.080975 0)
(-0.00336621 -0.081956 0)
(-0.00391896 -0.0830469 0)
(-0.00480871 -0.0842521 0)
(-0.00471991 -0.0803253 0)
(-0.00531188 -0.0809272 0)
(-0.00616678 -0.0815255 0)
(-0.00735914 -0.0821009 0)
(-0.00461963 -0.0794221 0)
(-0.00523777 -0.0796685 0)
(-0.00607513 -0.0798097 0)
(-0.00719217 -0.0798017 0)
(-0.00324086 -0.0786027 0)
(-0.00368099 -0.0785814 0)
(-0.0042595 -0.0783824 0)
(-0.00501279 -0.0779422 0)
(-0.00112922 -0.0781907 0)
(-0.00128213 -0.0780394 0)
(-0.001479 -0.0776777 0)
(-0.00172978 -0.0770324 0)
(0.256009 0.391857 0)
(0.236852 0.377639 0)
(0.211927 0.36011 0)
(0.181985 0.341065 0)
(0.1484 0.321684 0)
(0.111882 0.302402 0)
(0.0732881 0.285472 0)
(0.0350186 0.272678 0)
(-0.00115264 0.263433 0)
(-0.0385368 0.254921 0)
(-0.0726241 0.247793 0)
(-0.101339 0.242301 0)
(-0.134661 0.238716 0)
(-0.171642 0.237485 0)
(-0.202795 0.238405 0)
(-0.222889 0.238433 0)
(-0.230319 0.231507 0)
(-0.226559 0.205948 0)
(-0.216207 0.158649 0)
(-0.205767 0.0965125 0)
(-0.200612 0.0305137 0)
(-0.19997 -0.03401 0)
(-0.201445 -0.0956517 0)
(-0.204385 -0.150812 0)
(-0.207329 -0.196039 0)
(-0.206577 -0.23453 0)
(-0.200691 -0.272561 0)
(-0.191963 -0.311378 0)
(-0.181926 -0.348263 0)
(-0.171458 -0.382539 0)
(-0.162075 -0.41638 0)
(-0.155269 -0.453286 0)
(-0.152468 -0.498322 0)
(-0.154566 -0.559393 0)
(-0.161734 -0.650654 0)
(-0.163379 -0.799203 0)
(-0.104771 -1.03242 0)
(-0.0268999 -1.27102 0)
(0.0264983 -1.35258 0)
(0.147666 -1.2006 0)
(0.246022 0.407549 0)
(0.227539 0.399222 0)
(0.203119 0.387496 0)
(0.173123 0.373325 0)
(0.138264 0.357643 0)
(0.0993107 0.341321 0)
(0.0574353 0.32585 0)
(0.0145611 0.312735 0)
(-0.0290553 0.302228 0)
(-0.07209 0.292963 0)
(-0.108589 0.280355 0)
(-0.141129 0.273008 0)
(-0.175836 0.270843 0)
(-0.209154 0.267312 0)
(-0.234001 0.26091 0)
(-0.249423 0.24996 0)
(-0.254477 0.231269 0)
(-0.249543 0.197413 0)
(-0.239923 0.147743 0)
(-0.230713 0.0880109 0)
(-0.223809 0.0253913 0)
(-0.218791 -0.0368641 0)
(-0.215453 -0.0968065 0)
(-0.213375 -0.151229 0)
(-0.21076 -0.198314 0)
(-0.205457 -0.240367 0)
(-0.197161 -0.281153 0)
(-0.186926 -0.321759 0)
(-0.17548 -0.359407 0)
(-0.164027 -0.392668 0)
(-0.154306 -0.424029 0)
(-0.148114 -0.45705 0)
(-0.147004 -0.497007 0)
(-0.152164 -0.553584 0)
(-0.163824 -0.646317 0)
(-0.173178 -0.814709 0)
(-0.106345 -1.12252 0)
(-0.0657796 -1.3457 0)
(0.0266731 -1.41132 0)
(0.0202864 -1.1642 0)
(0.232101 0.422951 0)
(0.214238 0.420408 0)
(0.190663 0.414544 0)
(0.161489 0.405899 0)
(0.127161 0.395043 0)
(0.0884175 0.382684 0)
(0.0465351 0.369771 0)
(0.00313938 0.357439 0)
(-0.0423792 0.345829 0)
(-0.0828712 0.332376 0)
(-0.117807 0.317104 0)
(-0.152214 0.306357 0)
(-0.185973 0.302951 0)
(-0.214476 0.294302 0)
(-0.234899 0.279591 0)
(-0.247351 0.259228 0)
(-0.250708 0.230638 0)
(-0.246112 0.190353 0)
(-0.237699 0.138787 0)
(-0.228838 0.0799549 0)
(-0.220838 0.0185146 0)
(-0.213745 -0.0426857 0)
(-0.20757 -0.101525 0)
(-0.201959 -0.155754 0)
(-0.19572 -0.204353 0)
(-0.187775 -0.248674 0)
(-0.177967 -0.291291 0)
(-0.167078 -0.333559 0)
(-0.155857 -0.371349 0)
(-0.144706 -0.40358 0)
(-0.134345 -0.432153 0)
(-0.12696 -0.460573 0)
(-0.124749 -0.494666 0)
(-0.129187 -0.545627 0)
(-0.140741 -0.636562 0)
(-0.156823 -0.81613 0)
(-0.13706 -1.18406 0)
(-0.128687 -1.38479 0)
(-0.0569823 -1.4625 0)
(-0.128623 -1.16115 0)
(0.21774 0.437983 0)
(0.200898 0.440871 0)
(0.178839 0.44058 0)
(0.151589 0.437292 0)
(0.119455 0.431276 0)
(0.0831282 0.422885 0)
(0.0439404 0.412628 0)
(0.00285916 0.401202 0)
(-0.0387939 0.388019 0)
(-0.0753084 0.36936 0)
(-0.107401 0.352474 0)
(-0.141228 0.340536 0)
(-0.172872 0.332321 0)
(-0.196225 0.317074 0)
(-0.212962 0.294807 0)
(-0.222607 0.266215 0)
(-0.224728 0.229722 0)
(-0.220745 0.184189 0)
(-0.213426 0.130523 0)
(-0.205062 0.071518 0)
(-0.196727 0.0104185 0)
(-0.188683 -0.0503016 0)
(-0.180965 -0.108673 0)
(-0.173274 -0.163074 0)
(-0.164901 -0.212817 0)
(-0.15531 -0.258604 0)
(-0.144428 -0.30207 0)
(-0.133574 -0.344618 0)
(-0.12316 -0.382347 0)
(-0.112469 -0.414711 0)
(-0.10165 -0.442145 0)
(-0.0915703 -0.466758 0)
(-0.0849926 -0.494856 0)
(-0.0838894 -0.539075 0)
(-0.0889274 -0.622658 0)
(-0.0999061 -0.796003 0)
(-0.169709 -1.16862 0)
(-0.196905 -1.3713 0)
(-0.207153 -1.4782 0)
(-0.382505 -1.28427 0)
(0.205352 0.452141 0)
(0.190156 0.459917 0)
(0.170424 0.464646 0)
(0.146163 0.466229 0)
(0.117617 0.464628 0)
(0.0853971 0.459859 0)
(0.0507719 0.451947 0)
(0.0138008 0.440871 0)
(-0.0216664 0.424966 0)
(-0.053072 0.40394 0)
(-0.0828627 0.384904 0)
(-0.113262 0.372633 0)
(-0.140483 0.357921 0)
(-0.159662 0.335882 0)
(-0.172952 0.306892 0)
(-0.180079 0.271289 0)
(-0.181231 0.22858 0)
(-0.177665 0.178753 0)
(-0.171236 0.122919 0)
(-0.163518 0.0631721 0)
(-0.15538 0.00192469 0)
(-0.147137 -0.0587509 0)
(-0.138842 -0.117138 0)
(-0.130278 -0.171965 0)
(-0.121024 -0.222665 0)
(-0.11081 -0.269493 0)
(-0.099724 -0.313188 0)
(-0.0889941 -0.354795 0)
(-0.0789758 -0.39279 0)
(-0.0684763 -0.425538 0)
(-0.0568004 -0.453644 0)
(-0.0436617 -0.478404 0)
(-0.0300153 -0.503092 0)
(-0.0176415 -0.541663 0)
(-0.00712566 -0.615706 0)
(-0.00141475 -0.76945 0)
(-0.0808623 -1.06985 0)
(-0.132667 -1.29587 0)
(-0.213641 -1.39786 0)
(-0.4784 -1.71176 0)
(0.196436 0.464731 0)
(0.183567 0.476704 0)
(0.166944 0.485723 0)
(0.146602 0.491458 0)
(0.12276 0.493617 0)
(0.0959536 0.491918 0)
(0.0672629 0.485962 0)
(0.0366763 0.474883 0)
(0.00683525 0.456058 0)
(-0.0196434 0.43371 0)
(-0.0466644 0.414193 0)
(-0.0732466 0.399452 0)
(-0.0942229 0.378861 0)
(-0.10905 0.350813 0)
(-0.118865 0.315974 0)
(-0.123685 0.274704 0)
(-0.123909 0.227149 0)
(-0.120526 0.173852 0)
(-0.114792 0.116004 0)
(-0.107786 0.0552975 0)
(-0.100182 -0.00637767 0)
(-0.0922806 -0.0672845 0)
(-0.0841429 -0.125947 0)
(-0.0756303 -0.1813 0)
(-0.0664965 -0.232806 0)
(-0.0565984 -0.280467 0)
(-0.0460609 -0.324536 0)
(-0.0353828 -0.365261 0)
(-0.0253295 -0.403063 0)
(-0.0146633 -0.43711 0)
(-0.00209159 -0.467241 0)
(0.0134103 -0.494861 0)
(0.0335917 -0.522448 0)
(0.0574305 -0.56025 0)
(0.0849496 -0.629826 0)
(0.109938 -0.761333 0)
(0.0888034 -0.987868 0)
(0.0429906 -1.22654 0)
(-0.00538703 -1.34296 0)
(0.0718173 -1.93417 0)
(0.19173 0.475046 0)
(0.1818 0.490445 0)
(0.168927 0.502924 0)
(0.153185 0.511967 0)
(0.134793 0.517071 0)
(0.114212 0.517718 0)
(0.0922552 0.513221 0)
(0.0692886 0.502292 0)
(0.0454004 0.482755 0)
(0.0219753 0.459794 0)
(-0.000890918 0.440753 0)
(-0.0217241 0.420878 0)
(-0.0368903 0.394744 0)
(-0.04745 0.361705 0)
(-0.0539742 0.32216 0)
(-0.0566537 0.276523 0)
(-0.0559225 0.225285 0)
(-0.0525165 0.169283 0)
(-0.0472927 0.109728 0)
(-0.0409948 0.048075 0)
(-0.034128 -0.0141073 0)
(-0.0269428 -0.0753438 0)
(-0.0194958 -0.134357 0)
(-0.0116942 -0.190214 0)
(-0.00338102 -0.242384 0)
(0.00554854 -0.290728 0)
(0.0150699 -0.335341 0)
(0.0250853 -0.376337 0)
(0.0353109 -0.413802 0)
(0.0460943 -0.448898 0)
(0.0590279 -0.482399 0)
(0.0754822 -0.514515 0)
(0.0971962 -0.548542 0)
(0.125378 -0.591647 0)
(0.159533 -0.662938 0)
(0.191306 -0.784461 0)
(0.200601 -0.971916 0)
(0.17111 -1.17444 0)
(0.139687 -1.36168 0)
(0.160569 -1.70938 0)
(0.191385 0.482465 0)
(0.184864 0.500513 0)
(0.176171 0.515619 0)
(0.165399 0.527127 0)
(0.152747 0.534367 0)
(0.138569 0.536658 0)
(0.123384 0.533217 0)
(0.107496 0.522967 0)
(0.0902773 0.505044 0)
(0.071632 0.482957 0)
(0.0540489 0.461295 0)
(0.0394383 0.436424 0)
(0.0291523 0.40585 0)
(0.0224703 0.368841 0)
(0.0189288 0.325666 0)
(0.0182317 0.276774 0)
(0.019963 0.222844 0)
(0.0235653 0.164847 0)
(0.0284399 0.103985 0)
(0.0340668 0.0415748 0)
(0.0400819 -0.0210305 0)
(0.0462976 -0.0825498 0)
(0.0526758 -0.141862 0)
(0.0592948 -0.19813 0)
(0.0662837 -0.250839 0)
(0.0737564 -0.299779 0)
(0.0817858 -0.344982 0)
(0.0904552 -0.386655 0)
(0.0999404 -0.425174 0)
(0.110477 -0.461183 0)
(0.122543 -0.497204 0)
(0.137862 -0.534479 0)
(0.157155 -0.57438 0)
(0.182349 -0.623832 0)
(0.211873 -0.697948 0)
(0.237143 -0.810543 0)
(0.243429 -0.966308 0)
(0.217057 -1.14515 0)
(0.175173 -1.33444 0)
(0.112126 -1.53477 0)
(0.195131 0.486502 0)
(0.192325 0.506466 0)
(0.188033 0.523442 0)
(0.18234 0.536674 0)
(0.175391 0.545389 0)
(0.167403 0.548826 0)
(0.158633 0.546229 0)
(0.14917 0.536883 0)
(0.138555 0.520626 0)
(0.126751 0.499297 0)
(0.115532 0.474998 0)
(0.106742 0.446648 0)
(0.100988 0.412649 0)
(0.097907 0.372565 0)
(0.0971416 0.326674 0)
(0.0983557 0.275459 0)
(0.10116 0.219686 0)
(0.10511 0.160369 0)
(0.109775 0.0986749 0)
(0.114789 0.0358243 0)
(0.119904 -0.0269816 0)
(0.124994 -0.0886076 0)
(0.13005 -0.148056 0)
(0.135155 -0.204569 0)
(0.140437 -0.257656 0)
(0.146033 -0.307099 0)
(0.152077 -0.352922 0)
(0.158732 -0.395387 0)
(0.166251 -0.435063 0)
(0.175027 -0.472919 0)
(0.185317 -0.510571 0)
(0.19756 -0.551043 0)
(0.211817 -0.595387 0)
(0.229997 -0.649109 0)
(0.249491 -0.722813 0)
(0.262504 -0.823972 0)
(0.258084 -0.95397 0)
(0.226638 -1.10279 0)
(0.171352 -1.25999 0)
(0.0884766 -1.40769 0)
(0.20241 0.486816 0)
(0.203473 0.508041 0)
(0.20364 0.526229 0)
(0.20297 0.540574 0)
(0.201539 0.55026 0)
(0.199443 0.554508 0)
(0.19676 0.552622 0)
(0.193465 0.544083 0)
(0.189332 0.528875 0)
(0.184447 0.507941 0)
(0.179874 0.482309 0)
(0.176766 0.451627 0)
(0.17552 0.415216 0)
(0.176008 0.372959 0)
(0.177979 0.325208 0)
(0.181128 0.272517 0)
(0.185106 0.215678 0)
(0.189555 0.155701 0)
(0.194156 0.0937021 0)
(0.198652 0.0308168 0)
(0.202887 -0.0318675 0)
(0.206788 -0.0933267 0)
(0.210376 -0.152662 0)
(0.213747 -0.209179 0)
(0.217039 -0.262423 0)
(0.220402 -0.312184 0)
(0.223997 -0.358502 0)
(0.228002 -0.401679 0)
(0.232635 -0.442353 0)
(0.238173 -0.481578 0)
(0.244882 -0.520984 0)
(0.252424 -0.562887 0)
(0.260853 -0.609159 0)
(0.270207 -0.664259 0)
(0.277723 -0.734121 0)
(0.277572 -0.822826 0)
(0.261693 -0.93037 0)
(0.223359 -1.05045 0)
(0.162272 -1.17447 0)
(0.0820186 -1.2842 0)
(0.212484 0.483203 0)
(0.217438 0.505117 0)
(0.221995 0.523959 0)
(0.226184 0.53891 0)
(0.230018 0.549156 0)
(0.2335 0.553935 0)
(0.236613 0.552592 0)
(0.239254 0.544696 0)
(0.241324 0.5302 0)
(0.242908 0.509545 0)
(0.244549 0.483226 0)
(0.246868 0.451238 0)
(0.250099 0.413427 0)
(0.254181 0.369934 0)
(0.25893 0.321189 0)
(0.264083 0.267822 0)
(0.269354 0.210657 0)
(0.274457 0.150673 0)
(0.279153 0.0889261 0)
(0.283265 0.0264728 0)
(0.2867 -0.0356891 0)
(0.289429 -0.0966234 0)
(0.291501 -0.15551 0)
(0.293026 -0.211712 0)
(0.294144 -0.264803 0)
(0.295012 -0.314586 0)
(0.295786 -0.361107 0)
(0.296622 -0.404682 0)
(0.297666 -0.445942 0)
(0.299044 -0.485912 0)
(0.300773 -0.526042 0)
(0.302465 -0.568303 0)
(0.30375 -0.614589 0)
(0.303591 -0.667873 0)
(0.29955 -0.731665 0)
(0.287227 -0.808128 0)
(0.260912 -0.896455 0)
(0.216049 -0.991927 0)
(0.152455 -1.08816 0)
(0.0766567 -1.16741 0)
(0.224515 0.475591 0)
(0.233266 0.497699 0)
(0.242039 0.516719 0)
(0.250832 0.531849 0)
(0.25961 0.542296 0)
(0.268317 0.547339 0)
(0.276851 0.54634 0)
(0.285084 0.538899 0)
(0.292915 0.524911 0)
(0.300355 0.504535 0)
(0.307626 0.478039 0)
(0.31499 0.445573 0)
(0.322529 0.407263 0)
(0.330156 0.363394 0)
(0.337694 0.314485 0)
(0.344927 0.261224 0)
(0.351615 0.204448 0)
(0.357534 0.145099 0)
(0.362499 0.0841751 0)
(0.366391 0.022662 0)
(0.369161 -0.0385185 0)
(0.370812 -0.0985029 0)
(0.371412 -0.156536 0)
(0.371078 -0.212024 0)
(0.36995 -0.264565 0)
(0.368177 -0.313966 0)
(0.365893 -0.360262 0)
(0.363211 -0.403744 0)
(0.360201 -0.444992 0)
(0.356852 -0.484913 0)
(0.352989 -0.524736 0)
(0.348141 -0.566016 0)
(0.341593 -0.610432 0)
(0.332123 -0.660009 0)
(0.317566 -0.716762 0)
(0.294628 -0.781621 0)
(0.259313 -0.853452 0)
(0.208747 -0.928683 0)
(0.143474 -1.00247 0)
(0.0710433 -1.05824 0)
(0.237631 0.464029 0)
(0.249985 0.485906 0)
(0.262708 0.504703 0)
(0.275769 0.519648 0)
(0.289099 0.529987 0)
(0.302597 0.535035 0)
(0.316103 0.534202 0)
(0.329456 0.527072 0)
(0.342503 0.513478 0)
(0.355163 0.493474 0)
(0.367448 0.467215 0)
(0.379388 0.434902 0)
(0.390936 0.396814 0)
(0.401953 0.353336 0)
(0.412245 0.30502 0)
(0.421605 0.252587 0)
(0.429824 0.196871 0)
(0.436713 0.138779 0)
(0.442133 0.0792504 0)
(0.445996 0.0192061 0)
(0.448284 -0.0404974 0)
(0.449019 -0.0990587 0)
(0.448276 -0.155775 0)
(0.446173 -0.210088 0)
(0.442843 -0.261607 0)
(0.438413 -0.310132 0)
(0.432993 -0.355671 0)
(0.42664 -0.398459 0)
(0.419363 -0.438995 0)
(0.411043 -0.47803 0)
(0.401386 -0.516541 0)
(0.389851 -0.555746 0)
(0.375615 -0.596991 0)
(0.357468 -0.641662 0)
(0.333619 -0.690868 0)
(0.301626 -0.74489 0)
(0.258731 -0.802584 0)
(0.203308 -0.861239 0)
(0.136596 -0.917153 0)
(0.0665783 -0.955083 0)
(0.25098 0.448672 0)
(0.266659 0.469962 0)
(0.282989 0.4882 0)
(0.299915 0.502658 0)
(0.317338 0.512626 0)
(0.33512 0.51746 0)
(0.353076 0.51662 0)
(0.370995 0.509703 0)
(0.388657 0.49649 0)
(0.405893 0.476967 0)
(0.422581 0.451263 0)
(0.438593 0.419601 0)
(0.453781 0.382314 0)
(0.467957 0.339845 0)
(0.480898 0.292769 0)
(0.49238 0.241804 0)
(0.502204 0.187763 0)
(0.510205 0.131511 0)
(0.516262 0.0739323 0)
(0.520305 0.0158852 0)
(0.522333 -0.0418316 0)
(0.52237 -0.0984694 0)
(0.520493 -0.15337 0)
(0.516809 -0.205998 0)
(0.511433 -0.255968 0)
(0.504472 -0.30306 0)
(0.495999 -0.347241 0)
(0.486028 -0.388676 0)
(0.474517 -0.427762 0)
(0.461278 -0.465066 0)
(0.445948 -0.501354 0)
(0.42799 -0.537562 0)
(0.406592 -0.574698 0)
(0.380649 -0.613726 0)
(0.34874 -0.655275 0)
(0.309099 -0.699319 0)
(0.259852 -0.744866 0)
(0.200265 -0.789902 0)
(0.132134 -0.831593 0)
(0.0636553 -0.856004 0)
(0.263777 0.42977 0)
(0.282437 0.450178 0)
(0.30197 0.467583 0)
(0.322302 0.481308 0)
(0.34331 0.490692 0)
(0.364827 0.495141 0)
(0.38664 0.494151 0)
(0.408505 0.487354 0)
(0.430158 0.474532 0)
(0.451347 0.455623 0)
(0.471836 0.430731 0)
(0.491406 0.40009 0)
(0.509838 0.364051 0)
(0.526895 0.323085 0)
(0.542315 0.277777 0)
(0.555858 0.228822 0)
(0.567324 0.176993 0)
(0.576547 0.123108 0)
(0.583412 0.0679923 0)
(0.587854 0.0124478 0)
(0.589868 -0.04278 0)
(0.589474 -0.096989 0)
(0.586736 -0.149556 0)
(0.581743 -0.199966 0)
(0.574587 -0.247827 0)
(0.565345 -0.292895 0)
(0.554061 -0.335083 0)
(0.54071 -0.374482 0)
(0.525199 -0.411375 0)
(0.507325 -0.446156 0)
(0.486712 -0.479416 0)
(0.462841 -0.511868 0)
(0.434977 -0.54424 0)
(0.402181 -0.577213 0)
(0.363375 -0.61121 0)
(0.317297 -0.64611 0)
(0.262702 -0.681138 0)
(0.199477 -0.71486 0)
(0.129845 -0.745097 0)
(0.0620902 -0.759113 0)
(0.27533 0.40765 0)
(0.296579 0.426939 0)
(0.31887 0.443294 0)
(0.342113 0.45609 0)
(0.366166 0.464724 0)
(0.39084 0.468651 0)
(0.4159 0.467416 0)
(0.441074 0.460676 0)
(0.466066 0.44823 0)
(0.490573 0.430023 0)
(0.51429 0.406137 0)
(0.536925 0.376795 0)
(0.558196 0.342348 0)
(0.577815 0.303275 0)
(0.595505 0.260153 0)
(0.611009 0.213642 0)
(0.624113 0.16447 0)
(0.634641 0.1134 0)
(0.642471 0.0612028 0)
(0.647526 0.00862308 0)
(0.649789 -0.0436423 0)
(0.64926 -0.0949331 0)
(0.645983 -0.144657 0)
(0.64002 -0.19231 0)
(0.631434 -0.237495 0)
(0.620271 -0.279934 0)
(0.606541 -0.319488 0)
(0.590194 -0.356169 0)
(0.571087 -0.390148 0)
(0.549032 -0.421704 0)
(0.523686 -0.45124 0)
(0.494549 -0.479302 0)
(0.460982 -0.506417 0)
(0.422269 -0.533142 0)
(0.377621 -0.559795 0)
(0.326129 -0.586283 0)
(0.266993 -0.612077 0)
(0.200527 -0.636216 0)
(0.129303 -0.657013 0)
(0.0616108 -0.662846 0)
(0.285062 0.382693 0)
(0.30848 0.400682 0)
(0.333063 0.41582 0)
(0.358704 0.427539 0)
(0.385252 0.435296 0)
(0.412501 0.4386 0)
(0.4402 0.437044 0)
(0.468059 0.430322 0)
(0.495758 0.418255 0)
(0.522965 0.400794 0)
(0.549337 0.378028 0)
(0.574534 0.35017 0)
(0.598223 0.317565 0)
(0.620085 0.280672 0)
(0.639821 0.240042 0)
(0.657161 0.196302 0)
(0.671871 0.150132 0)
(0.683763 0.102241 0)
(0.692693 0.0533443 0)
(0.698566 0.00413185 0)
(0.701341 -0.0447445 0)
(0.700991 -0.0926621 0)
(0.697527 -0.139055 0)
(0.690979 -0.183431 0)
(0.681373 -0.225381 0)
(0.668722 -0.264599 0)
(0.653002 -0.30089 0)
(0.63414 -0.334193 0)
(0.611979 -0.364582 0)
(0.586308 -0.392259 0)
(0.556845 -0.417468 0)
(0.523136 -0.440588 0)
(0.484674 -0.462097 0)
(0.440962 -0.482484 0)
(0.391387 -0.502013 0)
(0.335335 -0.520686 0)
(0.272313 -0.538221 0)
(0.202929 -0.554037 0)
(0.130059 -0.566811 0)
(0.0619573 -0.565974 0)
(0.292514 0.355316 0)
(0.317671 0.371871 0)
(0.344074 0.385673 0)
(0.371606 0.396211 0)
(0.400106 0.403 0)
(0.429362 0.405606 0)
(0.459113 0.403671 0)
(0.48906 0.396931 0)
(0.518871 0.385235 0)
(0.548196 0.36855 0)
(0.576673 0.346967 0)
(0.603937 0.320701 0)
(0.62963 0.290082 0)
(0.653411 0.255545 0)
(0.674961 0.217611 0)
(0.693993 0.176867 0)
(0.710257 0.133947 0)
(0.723544 0.0895086 0)
(0.733689 0.0442121 0)
(0.740569 -0.00130186 0)
(0.744111 -0.0464226 0)
(0.744251 -0.090562 0)
(0.740964 -0.133178 0)
(0.734237 -0.173786 0)
(0.724056 -0.211971 0)
(0.710395 -0.247396 0)
(0.693197 -0.279822 0)
(0.672363 -0.309121 0)
(0.647735 -0.335289 0)
(0.619092 -0.358442 0)
(0.586157 -0.378755 0)
(0.548609 -0.396506 0)
(0.506085 -0.412161 0)
(0.458181 -0.426131 0)
(0.404479 -0.438707 0)
(0.344585 -0.450019 0)
(0.27822 -0.460011 0)
(0.206205 -0.468396 0)
(0.131703 -0.474112 0)
(0.0629098 -0.4676 0)
(0.297337 0.325954 0)
(0.323809 0.340985 0)
(0.351573 0.353371 0)
(0.380506 0.362658 0)
(0.410442 0.368419 0)
(0.441166 0.370274 0)
(0.472416 0.367916 0)
(0.503893 0.361124 0)
(0.535263 0.349777 0)
(0.566171 0.333863 0)
(0.596248 0.313482 0)
(0.625121 0.288847 0)
(0.652424 0.260275 0)
(0.677802 0.228178 0)
(0.700925 0.193045 0)
(0.721494 0.155425 0)
(0.73924 0.115907 0)
(0.753934 0.0751022 0)
(0.765384 0.0336205 0)
(0.77344 -0.00794204 0)
(0.777985 -0.0490107 0)
(0.778919 -0.0890274 0)
(0.776168 -0.127471 0)
(0.769673 -0.163867 0)
(0.759372 -0.19779 0)
(0.745195 -0.228884 0)
(0.72705 -0.256871 0)
(0.70481 -0.281572 0)
(0.67831 -0.302922 0)
(0.647339 -0.320968 0)
(0.611657 -0.335861 0)
(0.571016 -0.347879 0)
(0.525149 -0.35741 0)
(0.473777 -0.364863 0)
(0.416643 -0.370598 0)
(0.353522 -0.374877 0)
(0.284287 -0.377834 0)
(0.20992 -0.379405 0)
(0.133875 -0.378698 0)
(0.0642785 -0.367121 0)
(0.299282 0.295044 0)
(0.32666 0.308497 0)
(0.355349 0.319421 0)
(0.385221 0.327417 0)
(0.416112 0.332112 0)
(0.447807 0.333181 0)
(0.48005 0.330365 0)
(0.512546 0.323485 0)
(0.544971 0.312452 0)
(0.576975 0.297277 0)
(0.608194 0.278071 0)
(0.63826 0.255047 0)
(0.666805 0.228512 0)
(0.693477 0.198857 0)
(0.71794 0.166543 0)
(0.739884 0.132083 0)
(0.759028 0.0960276 0)
(0.775124 0.0589449 0)
(0.787953 0.0214042 0)
(0.797333 -0.0160366 0)
(0.803102 -0.0528319 0)
(0.805114 -0.0884494 0)
(0.803246 -0.122386 0)
(0.797383 -0.154173 0)
(0.787411 -0.183384 0)
(0.77321 -0.209644 0)
(0.754646 -0.232651 0)
(0.731564 -0.25219 0)
(0.703786 -0.268157 0)
(0.671115 -0.280571 0)
(0.633346 -0.289575 0)
(0.590283 -0.295444 0)
(0.541741 -0.298564 0)
(0.487555 -0.299377 0)
(0.427605 -0.29832 0)
(0.361799 -0.295781 0)
(0.290121 -0.292053 0)
(0.21369 -0.287227 0)
(0.136255 -0.280499 0)
(0.0658845 -0.264204 0)
(0.298184 0.263018 0)
(0.326081 0.274867 0)
(0.355286 0.284309 0)
(0.385671 0.290996 0)
(0.417074 0.294606 0)
(0.449287 0.294865 0)
(0.482064 0.29156 0)
(0.515122 0.284553 0)
(0.54815 0.273786 0)
(0.580814 0.259292 0)
(0.612765 0.241196 0)
(0.643646 0.219713 0)
(0.673102 0.195143 0)
(0.700787 0.16786 0)
(0.726368 0.138302 0)
(0.749533 0.106954 0)
(0.769992 0.074333 0)
(0.787478 0.040974 0)
(0.801748 0.00741348 0)
(0.812585 -0.0258186 0)
(0.819781 -0.058197 0)
(0.823141 -0.0892094 0)
(0.822484 -0.118366 0)
(0.817636 -0.145205 0)
(0.808424 -0.169297 0)
(0.794671 -0.190261 0)
(0.776195 -0.207777 0)
(0.752808 -0.221615 0)
(0.724315 -0.231657 0)
(0.690524 -0.237919 0)
(0.651259 -0.240559 0)
(0.606372 -0.239876 0)
(0.555751 -0.236292 0)
(0.499335 -0.230306 0)
(0.437115 -0.222442 0)
(0.369105 -0.213206 0)
(0.29538 -0.203018 0)
(0.21718 -0.192069 0)
(0.138548 -0.179571 0)
(0.0675173 -0.158793 0)
(0.29395 0.230296 0)
(0.322 0.240537 0)
(0.351341 0.248497 0)
(0.381846 0.253873 0)
(0.413358 0.256391 0)
(0.445679 0.255824 0)
(0.478577 0.252001 0)
(0.511786 0.24482 0)
(0.545015 0.234255 0)
(0.577952 0.220361 0)
(0.610268 0.203277 0)
(0.641628 0.183221 0)
(0.671696 0.160489 0)
(0.700141 0.135445 0)
(0.72664 0.108509 0)
(0.750885 0.0801454 0)
(0.77258 0.0508489 0)
(0.791447 0.0211299 0)
(0.80722 -0.00849565 0)
(0.819642 -0.0375127 0)
(0.828459 -0.0654077 0)
(0.833424 -0.0916795 0)
(0.834292 -0.115846 0)
(0.830824 -0.13745 0)
(0.822778 -0.156062 0)
(0.809915 -0.1713 0)
(0.791998 -0.182842 0)
(0.768798 -0.19046 0)
(0.740098 -0.194046 0)
(0.705706 -0.193638 0)
(0.665467 -0.189435 0)
(0.619279 -0.181793 0)
(0.567103 -0.171196 0)
(0.508967 -0.15822 0)
(0.444963 -0.143483 0)
(0.375189 -0.127596 0)
(0.299793 -0.111079 0)
(0.220118 -0.0941725 0)
(0.14045 -0.0760687 0)
(0.0688205 -0.0511263 0)
(0.286552 0.197286 0)
(0.31441 0.205931 0)
(0.343531 0.212423 0)
(0.373792 0.216498 0)
(0.405042 0.217925 0)
(0.437097 0.216518 0)
(0.469742 0.212145 0)
(0.502733 0.204738 0)
(0.535801 0.194298 0)
(0.568662 0.1809 0)
(0.601015 0.164696 0)
(0.632553 0.145912 0)
(0.662966 0.124843 0)
(0.691944 0.101845 0)
(0.719185 0.0773308 0)
(0.744387 0.0517515 0)
(0.767259 0.0255892 0)
(0.787512 -0.000655401 0)
(0.804856 -0.0264724 0)
(0.818996 -0.0513467 0)
(0.82963 -0.0747658 0)
(0.836452 -0.0962293 0)
(0.83915 -0.115255 0)
(0.837409 -0.131384 0)
(0.830911 -0.144191 0)
(0.819344 -0.153299 0)
(0.80241 -0.1584 0)
(0.779833 -0.159287 0)
(0.751371 -0.155886 0)
(0.716826 -0.148286 0)
(0.676061 -0.136757 0)
(0.62902 -0.121738 0)
(0.575738 -0.103809 0)
(0.516332 -0.0836363 0)
(0.45098 -0.061928 0)
(0.379859 -0.0393836 0)
(0.303174 -0.0165986 0)
(0.222334 0.00616609 0)
(0.14166 0.0297286 0)
(0.0691804 0.0584184 0)
(0.276024 0.164388 0)
(0.303361 0.171463 0)
(0.331926 0.176509 0)
(0.361599 0.179299 0)
(0.392243 0.179641 0)
(0.423686 0.177382 0)
(0.455732 0.172424 0)
(0.488163 0.164728 0)
(0.520739 0.15432 0)
(0.553205 0.141292 0)
(0.585296 0.125809 0)
(0.616738 0.108103 0)
(0.647254 0.0884722 0)
(0.676565 0.0672725 0)
(0.704392 0.0449125 0)
(0.730453 0.0218428 0)
(0.754463 -0.00145338 0)
(0.776124 -0.0244696 0)
(0.795124 -0.0466834 0)
(0.811129 -0.0675647 0)
(0.823787 -0.0865867 0)
(0.832727 -0.103236 0)
(0.837558 -0.117019 0)
(0.837878 -0.127471 0)
(0.833283 -0.13417 0)
(0.823377 -0.136756 0)
(0.807796 -0.134953 0)
(0.786216 -0.128597 0)
(0.758366 -0.117672 0)
(0.724042 -0.102349 0)
(0.683123 -0.082998 0)
(0.635601 -0.0601842 0)
(0.581591 -0.0346075 0)
(0.52131 -0.00702913 0)
(0.455017 0.0217663 0)
(0.382949 0.0510089 0)
(0.305364 0.0800483 0)
(0.223691 0.108608 0)
(0.142105 0.137513 0)
(0.0686747 0.169806 0)
(0.262469 0.131999 0)
(0.288967 0.137538 0)
(0.316651 0.141168 0)
(0.345411 0.142695 0)
(0.375117 0.141957 0)
(0.405618 0.138832 0)
(0.436738 0.13325 0)
(0.468286 0.125194 0)
(0.500054 0.114709 0)
(0.531824 0.101903 0)
(0.563368 0.0869509 0)
(0.594456 0.0700911 0)
(0.62485 0.0516258 0)
(0.654309 0.0319157 0)
(0.682588 0.0113754 0)
(0.709429 -0.00953428 0)
(0.734557 -0.0303128 0)
(0.757669 -0.0504278 0)
(0.778432 -0.0693248 0)
(0.796474 -0.0864396 0)
(0.811383 -0.101211 0)
(0.822713 -0.113094 0)
(0.829982 -0.121571 0)
(0.832688 -0.126163 0)
(0.830323 -0.126456 0)
(0.822397 -0.122121 0)
(0.808476 -0.112939 0)
(0.788193 -0.0988156 0)
(0.761257 -0.0798224 0)
(0.727459 -0.056233 0)
(0.686689 -0.028555 0)
(0.638986 0.00247902 0)
(0.584559 0.0360077 0)
(0.523749 0.0711789 0)
(0.456904 0.107165 0)
(0.384304 0.14315 0)
(0.306232 0.178435 0)
(0.224104 0.212724 0)
(0.141902 0.246837 0)
(0.0677856 0.282561 0)
(0.246062 0.100516 0)
(0.271412 0.104559 0)
(0.2979 0.10681 0)
(0.325426 0.107099 0)
(0.353874 0.10529 0)
(0.383108 0.101285 0)
(0.412979 0.095033 0)
(0.443325 0.0865359 0)
(0.473974 0.0758514 0)
(0.504748 0.0630977 0)
(0.535467 0.0484553 0)
(0.565944 0.0321683 0)
(0.595994 0.0145444 0)
(0.625423 -0.00404642 0)
(0.654026 -0.0231747 0)
(0.681576 -0.0423542 0)
(0.707814 -0.0610477 0)
(0.732439 -0.078676 0)
(0.755097 -0.0946293 0)
(0.775372 -0.108282 0)
(0.792781 -0.119011 0)
(0.806786 -0.12622 0)
(0.816798 -0.12935 0)
(0.822197 -0.127901 0)
(0.82235 -0.121467 0)
(0.81666 -0.109778 0)
(0.804626 -0.0927136 0)
(0.785861 -0.0702876 0)
(0.760075 -0.0426771 0)
(0.727058 -0.0102728 0)
(0.686693 0.026262 0)
(0.639049 0.0659544 0)
(0.584474 0.107692 0)
(0.523483 0.150559 0)
(0.456511 0.193772 0)
(0.383835 0.236519 0)
(0.305725 0.278053 0)
(0.223565 0.318037 0)
(0.141121 0.357262 0)
(0.0666853 0.39615 0)
(0.227065 0.0703354 0)
(0.250963 0.0729357 0)
(0.275947 0.073851 0)
(0.301923 0.0729337 0)
(0.32879 0.0700655 0)
(0.356434 0.0651658 0)
(0.38473 0.0581972 0)
(0.413549 0.0491707 0)
(0.442758 0.0381502 0)
(0.472225 0.0252567 0)
(0.501822 0.010672 0)
(0.531419 -0.00535772 0)
(0.560888 -0.022519 0)
(0.590092 -0.0404282 0)
(0.618876 -0.0586293 0)
(0.647055 -0.0765955 0)
(0.674397 -0.0937325 0)
(0.700606 -0.109388 0)
(0.725305 -0.122864 0)
(0.748025 -0.133437 0)
(0.768192 -0.140388 0)
(0.785151 -0.143047 0)
(0.79819 -0.140794 0)