/*--------------------------------*- C++ -*----------------------------------*\
| =========                 |                                                 |
| \\      /  F ield         | OpenFOAM: The Open Source CFD Toolbox           |
|  \\    /   O peration     | Version:  5.0                                   |
|   \\  /    A nd           | Web:      www.OpenFOAM.org                      |
|    \\/     M anipulation  |                                                 |
\*---------------------------------------------------------------------------*/
FoamFile
{
    version     2.0;
    format      ascii;
    class       surfaceScalarField;
    location    "0.95";
    object      alphaPhi10;
}
// * * * * * * * * * * * * * * * * * * * * * * * * * * * * * * * * * * * * * //

dimensions      [0 3 -1 0 0 0 0];

internalField   nonuniform List<scalar> 
3782
(
-7.11136e-15
-1.35268e-14
-5.54366e-15
-1.15541e-14
-3.77317e-15
-8.34311e-15
-2.33501e-15
-5.36699e-15
-1.34393e-15
-3.16674e-15
-7.31507e-16
-1.74928e-15
-3.81948e-16
-9.20053e-16
-1.93856e-16
-4.67931e-16
-9.68876e-17
-2.33614e-16
-4.83042e-17
-1.1622e-16
-2.43188e-17
-5.84444e-17
-1.24701e-17
-3.00259e-17
-6.49654e-18
-1.57517e-17
-3.33574e-18
-8.20143e-18
-1.50972e-18
-3.79756e-18
-3.14086e-19
-8.1707e-19
6.72092e-19
1.41718e-18
6.45749e-19
2.77651e-18
5.74904e-19
2.75921e-18
3.99832e-19
2.40426e-18
1.70824e-19
1.54326e-18
3.8225e-20
6.18948e-19
3.94488e-21
1.37525e-19
1.74901e-22
1.59103e-20
2.94355e-24
9.43869e-22
-2.04236e-27
3.00584e-23
-1.9539e-26
1.84156e-24
-5.04697e-27
2.58457e-25
-8.7967e-28
3.06244e-26
-1.28029e-28
3.22729e-27
-1.56507e-29
3.17014e-28
-1.59456e-30
2.75231e-29
-1.33497e-31
2.03849e-30
-8.8701e-33
1.25048e-31
-4.49225e-34
6.08817e-33
-1.74443e-35
2.25231e-34
-6.79856e-37
6.40172e-36
-4.26282e-38
1.85984e-37
-5.83554e-40
8.25491e-39
-3.4806e-42
7.39222e-41
-3.93501e-45
2.86402e-43
-6.9839e-61
1.86397e-46
1.06464e-62
-1.163e-14
-5.39028e-15
-7.82776e-15
-3.32441e-15
3.19568e-15
1.09743e-15
4.76031e-15
1.61331e-14
-1.11762e-14
-4.70021e-15
-1.01098e-14
-3.87339e-15
-8.12069e-15
-2.75354e-15
-1.40645e-15
-4.88338e-15
-8.74312e-15
-3.47788e-15
-8.67619e-15
-3.1598e-15
-8.1394e-15
-2.64605e-15
-1.99572e-15
-7.13053e-15
-6.03158e-15
-2.32612e-15
-6.41913e-15
-2.28952e-15
-6.47771e-15
-2.09239e-15
-1.7595e-15
-6.19305e-15
-3.8073e-15
-1.44701e-15
-4.32983e-15
-1.54153e-15
-4.66363e-15
-1.52992e-15
-1.40646e-15
-4.75705e-15
-2.25288e-15
-8.53526e-16
-2.74168e-15
-9.8681e-16
-3.15624e-15
-1.06603e-15
-1.0719e-15
-3.43608e-15
-1.2739e-15
-4.84981e-16
-1.6655e-15
-6.1108e-16
-2.05776e-15
-7.2126e-16
-7.95191e-16
-2.40062e-15
-7.00126e-16
-2.69242e-16
-9.88606e-16
-3.71509e-16
-1.3177e-15
-4.80962e-16
-5.825e-16
-1.65467e-15
-3.79975e-16
-1.47995e-16
-5.82801e-16
-2.24678e-16
-8.42035e-16
-3.19978e-16
-4.25692e-16
-1.14162e-15
-2.06719e-16
-8.15636e-17
-3.46077e-16
-1.36707e-16
-5.43543e-16
-2.1432e-16
-3.12252e-16
-7.95796e-16
-1.14223e-16
-4.55601e-17
-2.09246e-16
-8.43826e-17
-3.57059e-16
-1.4522e-16
-2.3018e-16
-5.62543e-16
-6.46429e-17
-2.5955e-17
-1.29459e-16
-5.29844e-17
-2.38972e-16
-9.94484e-17
-1.69863e-16
-4.02422e-16
-3.74055e-17
-1.50243e-17
-8.16245e-17
-3.36414e-17
-1.61922e-16
-6.82798e-17
-1.24383e-16
-2.89131e-16
-2.16687e-17
-8.63664e-18
-5.15411e-17
-2.11908e-17
-1.0941e-16
-4.62345e-17
-8.91319e-17
-2.05949e-16
-1.17744e-17
-4.61169e-18
-3.12631e-17
-1.26837e-17
-7.16386e-17
-2.99705e-17
-6.11851e-17
-1.42459e-16
-4.74002e-18
-1.80368e-18
-1.62406e-17
-6.42299e-18
-4.26043e-17
-1.74156e-17
-3.86213e-17
-9.19039e-17
6.35087e-19
1.08216e-18
-3.68933e-18
-1.40325e-18
-1.81619e-17
-7.15282e-18
-1.99293e-17
-4.91854e-17
6.5701e-18
1.8804e-18
9.61038e-18
4.73598e-18
3.84439e-18
5.84408e-18
-3.60861e-18
-9.38002e-18
7.80086e-18
1.72418e-18
1.9526e-17
4.71786e-18
3.46482e-17
1.12976e-17
1.96904e-17
3.73201e-17
7.30438e-18
1.38897e-18
1.91338e-17
4.10897e-18
4.29107e-17
1.01469e-17
2.11191e-17
8.3079e-17
5.48418e-18
7.4656e-19
1.5963e-17
2.60657e-18
3.89681e-17
7.43252e-18
1.79339e-17
8.20925e-17
2.70401e-18
2.17226e-19
9.37854e-18
9.59972e-19
2.69259e-17
3.42915e-18
1.00616e-17
6.54487e-17
7.5052e-19
2.93398e-20
3.22666e-18
1.68479e-19
1.14436e-17
7.83836e-19
2.9159e-18
3.3731e-17
1.08372e-19
1.75113e-21
5.75476e-19
1.28927e-20
2.52789e-18
7.61853e-20
3.55788e-19
9.1674e-18
8.30769e-21
4.5737e-23
5.39657e-20
4.53398e-22
2.84131e-19
3.36415e-21
1.88622e-20
1.22242e-18
3.40407e-22
4.1255e-25
2.80343e-21
6.66884e-24
1.81155e-20
6.95586e-23
4.98852e-22
9.14008e-20
1.39014e-23
-7.76133e-26
9.98041e-23
-1.82338e-25
6.88799e-22
2.2594e-25
5.39589e-24
4.0045e-21
1.8132e-24
-2.74956e-26
1.07692e-23
-1.33967e-25
5.69758e-23
-5.86187e-25
-2.04133e-24
2.59461e-22
2.20836e-25
-5.04476e-27
1.43502e-24
-2.90314e-26
8.58913e-24
-1.66438e-25
-7.86602e-25
4.28935e-23
2.27021e-26
-7.61143e-28
1.59253e-25
-5.07328e-27
1.09864e-24
-3.54477e-26
-1.96577e-25
6.21668e-24
2.24948e-27
-9.85523e-29
1.78319e-26
-8.03461e-28
1.44066e-25
-6.97998e-27
-4.516e-26
9.09711e-25
2.04583e-28
-1.05278e-29
1.96755e-27
-1.07823e-28
1.93896e-26
-1.19899e-27
-9.4217e-27
1.40136e-25
1.57923e-29
-8.98928e-31
1.89795e-28
-1.12481e-29
2.36892e-27
-1.6535e-28
-1.70313e-27
2.06889e-26
9.84061e-31
-6.01737e-32
1.4385e-29
-8.49034e-31
2.36403e-28
-1.69128e-29
-2.52234e-28
2.71072e-27
4.8094e-32
-3.09133e-33
7.89311e-31
-4.26388e-32
1.75672e-29
-1.12207e-30
-2.73459e-29
2.92409e-28
1.79525e-33
-1.2694e-34
2.86297e-32
-1.35e-33
8.4225e-31
-3.66126e-32
-1.761e-30
2.2936e-29
5.33362e-35
-6.03679e-36
6.46042e-34
-3.59416e-35
1.96707e-32
-2.26906e-34
-4.02588e-32
1.05965e-30
1.80268e-36
-3.87561e-37
1.13161e-35
-8.77803e-37
8.20846e-35
-1.30878e-37
-3.29881e-35
1.73994e-32
7.02188e-38
-3.91514e-39
1.14106e-37
-8.69324e-39
1.85883e-38
-1.57972e-39
-5.98404e-35
2.04919e-35
4.73535e-40
-2.43708e-41
7.81786e-40
-5.00887e-41
1.58236e-40
-1.54291e-42
-5.84532e-45
2.62436e-35
1.88444e-42
-4.2474e-44
2.96164e-42
-9.84366e-44
3.51424e-45
-1.68637e-45
-1.63592e-48
4.40619e-46
1.91655e-45
-1.06416e-62
3.27945e-45
-4.84624e-66
1.80242e-48
-2.49714e-69
-3.58837e-70
4.21253e-51
4.84873e-66
2.49787e-69
7.33336e-73
2.42593e-73
1.85109e-13
1.17615e-14
6.15895e-13
8.41297e-15
2.51483e-13
-8.22603e-15
3.29648e-14
-1.22527e-15
3.67995e-15
7.69916e-17
2.54348e-16
-1.86353e-17
1.21767e-15
-6.74783e-16
1.60105e-15
-6.34595e-16
1.70081e-15
-1.9261e-16
4.34849e-10
-4.57103e-10
3.77864e-09
-3.8509e-09
4.1192e-09
-5.64588e-09
1.39181e-09
-2.52561e-09
-4.11332e-11
-1.15471e-09
5.96896e-12
-2.26997e-10
2.47971e-11
-1.67909e-12
-1.30187e-14
-1.61517e-13
-4.49728e-14
-1.66428e-13
-1.8428e-13
-3.00054e-13
-2.90936e-13
-4.26553e-13
-2.23724e-12
-2.5059e-12
-9.73254e-12
-8.53053e-13
-8.80849e-12
-1.31492e-11
-9.7339e-12
-8.03224e-13
-6.07473e-14
-9.98565e-12
-5.60481e-13
4.95127e-13
-4.53154e-12
3.98453e-12
-3.32941e-11
2.89256e-11
-1.76287e-10
1.44506e-10
-9.1389e-10
6.72931e-11
-3.31789e-09
-2.28999e-12
-2.80547e-09
-4.07809e-10
-2.29098e-09
-1.03205e-09
-1.49014e-09
-1.19493e-09
-3.62211e-14
-1.61287e-12
-1.51789e-14
-7.20751e-14
-3.18237e-15
-7.1628e-14
-1.9349e-15
-1.54729e-14
-2.25852e-15
-1.91312e-14
-4.92391e-14
5.422e-15
1.45609e-15
1.02476e-14
3.35851e-15
1.73209e-15
3.39826e-16
5.78552e-16
1.15811e-16
-4.1222e-16
2.13406e-16
1.05219e-17
8.08753e-17
1.42451e-15
-5.95993e-16
1.48411e-15
-6.17707e-16
2.56291e-15
-1.25826e-15
1.85539e-09
-1.53675e-09
3.42687e-09
-4.74684e-09
1.88585e-09
-3.36113e-09
1.44046e-11
-2.65564e-10
4.63787e-11
-2.90709e-11
1.54505e-12
-3.96364e-13
-1.62848e-14
-1.39229e-13
-4.24748e-14
-1.64817e-13
-9.86592e-14
-1.35826e-13
-1.69894e-13
-2.60251e-13
1.35776e-12
-2.08392e-12
4.6403e-12
-1.13264e-11
-1.04321e-10
-8.83878e-11
-2.43148e-10
-4.9825e-10
-1.21417e-09
-5.36234e-10
-2.85764e-09
-1.19287e-10
-3.12394e-09
1.67812e-10
-1.8295e-09
3.32003e-10
-2.25771e-09
2.70455e-10
-4.10984e-09
2.02555e-10
-3.83449e-09
-8.83903e-11
-3.3375e-09
-3.90815e-10
-3.0659e-09
-5.69538e-10
-1.48336e-09
-7.36969e-10
-9.02159e-13
-1.27316e-11
-6.41422e-14
-2.50772e-12
-3.45525e-14
-1.24961e-13
-4.53931e-15
-1.2123e-13
-1.97681e-15
-8.53615e-15
-2.43077e-15
-1.94414e-14
-4.78387e-14
-5.30331e-15
-1.33127e-15
-3.21817e-15
-5.60557e-16
-2.94164e-15
-2.48273e-16
-2.16653e-15
4.02387e-17
-1.23948e-15
1.7664e-16
-2.6187e-16
3.89982e-17
1.2902e-15
-5.4838e-16
1.2474e-15
-5.48031e-16
1.70254e-14
-1.69555e-14
2.83995e-09
-2.08784e-09
3.02582e-09
-4.33761e-09
-9.38484e-11
-1.49465e-09
2.72392e-11
-7.64006e-11
2.68441e-13
-2.03123e-12
-1.46945e-14
-1.16465e-13
-4.34912e-14
-1.23837e-13
-7.06057e-14
-1.69022e-13
-8.25805e-14
-1.55589e-13
-2.37789e-13
-1.73666e-13
-1.79407e-12
-8.01914e-13
-1.01393e-11
-6.42526e-12
-8.29813e-10
-3.39955e-11
-5.29748e-09
-4.57185e-10
-5.40182e-09
-4.21927e-10
-5.35885e-09
-1.52898e-10
-5.19449e-09
1.3564e-11
-4.91614e-09
5.09181e-11
-4.56035e-09
1.3876e-12
-4.24149e-09
-3.3508e-11
-4.05755e-09
-1.82546e-10
-2.29497e-09
-4.17658e-13
-3.69204e-10
-5.53736e-12
-2.55516e-12
-2.4713e-11
-1.93045e-12
-1.61727e-11
-4.80977e-13
-4.11099e-12
-1.25736e-13
-5.38588e-13
-6.86048e-15
-6.66527e-15
-1.49891e-15
-7.56416e-15
-2.32476e-15
-1.94995e-14
-4.55844e-14
-5.49345e-15
-1.45305e-15
-4.52929e-15
-9.01079e-16
-3.50896e-15
-4.30279e-16
-2.42638e-15
-8.51159e-17
-1.37832e-15
8.79493e-17
-1.50839e-16
1.37398e-17
1.37125e-15
-4.22303e-16
1.26611e-15
-4.5039e-16
2.79688e-13
-2.95342e-13
2.68198e-09
-2.3635e-09
2.49158e-09
-3.54659e-09
-9.06575e-11
-5.37912e-10
1.83344e-12
-6.44477e-12
-1.14082e-14
-1.67273e-13
-3.58304e-14
-9.93584e-14
-5.91858e-14
-8.61583e-14
-3.50914e-13
-3.7135e-13
-3.44157e-13
-8.98469e-13
5.07317e-14
-5.31369e-13
-5.48725e-13
-3.5171e-13
-7.10161e-12
-1.04536e-12
-4.12788e-11
-8.10462e-12
-4.08191e-09
-8.68957e-11
-4.97475e-09
-1.03162e-10
-5.08199e-09
-3.54491e-11
-5.03127e-09
-4.03597e-11
-2.72856e-09
-8.3337e-11
-3.8595e-10
-5.26673e-15
-2.46534e-11
-6.40174e-14
-1.32228e-13
-5.14172e-13
-5.29081e-13
-2.61667e-13
-2.87037e-12
-3.50667e-12
-5.76661e-12
-2.26496e-11
-2.03162e-11
-7.64198e-11
-1.00981e-11
-7.41748e-11
-2.32702e-15
-3.23745e-11
-1.89017e-15
-7.14842e-15
-1.67162e-15
-7.9148e-15
-2.15929e-15
-1.95595e-14
-4.491e-14
-4.53726e-15
-1.29939e-15
-4.01077e-15
-9.30617e-16
-3.24933e-15
-5.48727e-16
-2.34158e-15
-2.2458e-16
-1.35449e-15
-1.5475e-17
-7.4977e-17
-1.53409e-17
1.71314e-15
-2.59603e-16
1.58858e-15
-3.18246e-16
6.07576e-12
-6.36963e-12
2.42267e-09
-1.94102e-09
1.96164e-09
-2.47936e-09
3.13048e-12
-2.35956e-10
3.68956e-14
-3.47147e-12
-2.86624e-14
-7.02924e-14
-3.8559e-14
-7.09943e-14
-1.10428e-13
-1.24472e-14
-1.07989e-12
-4.36288e-13
-1.27638e-12
-6.77623e-13
-1.21296e-12
-5.99448e-13
-1.37457e-12
-4.88168e-13
-2.25177e-12
-6.52827e-13
-2.26814e-11
-5.0068e-13
-1.69477e-10
-9.52749e-16
-4.2897e-10
-8.52603e-16
-4.30125e-10
-8.2172e-16
-1.09011e-10
-1.17234e-15
-6.64842e-15
-3.64027e-15
-1.16237e-14
-1.99128e-15
-6.64784e-14
-1.17477e-14
-4.38129e-13
-1.52583e-13
1.24639e-13
-9.19544e-13
-5.82373e-12
-1.22378e-11
-5.28595e-11
-7.08464e-11
-4.29189e-11
-8.5639e-11
-2.88181e-11
-9.19327e-11
-2.45923e-15
-7.71913e-11
-1.72361e-15
-8.01735e-15
-1.5258e-15
-8.25636e-15
-1.97647e-15
-1.91486e-14
-4.54064e-14
-3.51441e-15
-1.10218e-15
-3.31443e-15
-8.96352e-16
-2.84159e-15
-6.26347e-16
-2.14259e-15
-3.48363e-16
-1.18336e-15
-1.12723e-16
7.49207e-16
3.65127e-18
2.22014e-15
-1.01042e-16
1.96296e-15
-1.76866e-16
1.65931e-10
-1.72298e-10
4.61057e-09
-1.58172e-09
7.52491e-10
-1.92633e-09
1.24743e-12
-1.0404e-10
-1.29265e-14
-2.69802e-12
-8.44764e-14
-5.89296e-13
-1.10949e-13
-3.66358e-14
-2.60285e-13
1.34022e-13
-9.93114e-13
-1.56026e-13
-1.359e-12
-2.87259e-13
-1.54241e-12
-3.90791e-13
-1.66705e-12
-3.39018e-13
-7.64481e-13
-2.78185e-13
-4.86263e-15
-8.1757e-16
-4.95842e-15
-9.39159e-16
-4.94064e-15
-9.43115e-16
-4.8424e-15
-1.00216e-15
-4.8488e-15
-1.26333e-15
-6.89927e-15
-1.71351e-15
-7.50701e-15
-1.83619e-15
-1.09445e-14
-1.25507e-14
8.55792e-14
-2.98359e-13
-9.89693e-12
-7.62549e-12
-5.38191e-11
-5.7587e-11
-4.62994e-11
-7.80668e-11
-3.80824e-11
-9.34573e-11
-2.49692e-11
-1.04784e-10
-6.29941e-15
-2.77542e-11
-1.44932e-15
-1.30125e-14
-1.28282e-15
-8.55631e-15
-1.73787e-15
-1.85596e-14
-4.62128e-14
-2.64384e-15
-9.09598e-16
-2.66759e-15
-8.31797e-16
-2.42513e-15
-6.66166e-16
-1.91324e-15
-4.43931e-16
-1.0412e-15
-1.90131e-16
8.92411e-16
4.32507e-17
2.2798e-15
6.1159e-17
2.03829e-15
-3.56288e-17
7.08927e-10
-1.66505e-10
2.09936e-09
-8.95452e-10
5.36312e-10
-9.42498e-10
1.10879e-11
-4.1024e-11
-3.25033e-15
-1.77971e-12
-2.31568e-12
-2.25738e-12
-3.45006e-12
-1.09267e-11
-4.37472e-13
-3.23056e-12
-5.47564e-13
-4.16289e-14
-1.03597e-12
-8.82567e-14
-1.31902e-12
-8.17938e-14
-1.49859e-12
-1.23958e-13
-9.61405e-15
-4.74749e-14
-7.43547e-15
-5.48975e-16
-5.37675e-15
-6.56865e-16
-4.89458e-15
-1.06774e-15
-4.65862e-15
-1.19792e-15
-4.25335e-15
-1.51629e-15
-3.95036e-15
-1.59961e-15
-3.92349e-15
-2.04368e-15
-1.5644e-14
-4.62219e-15
-2.5011e-13
-1.17531e-13
-3.873e-11
-3.93582e-12
-4.32457e-11
-5.20362e-11
-3.79034e-11
-8.28678e-11
-3.11142e-11
-9.99824e-11
-9.81572e-12
-1.24833e-10
-3.92413e-14
-9.35255e-15
-1.08489e-15
-5.60345e-14
-9.647e-16
-8.80502e-15
-1.41542e-15
-1.79329e-14
-4.67419e-14
-1.96928e-15
-7.39895e-16
-2.12819e-15
-7.53044e-16
-2.04996e-15
-6.74142e-16
-1.69021e-15
-5.07943e-16
-9.39592e-16
-2.52041e-16
8.83868e-16
8.07837e-17
2.23018e-15
2.07532e-16
2.00144e-15
1.00037e-16
1.04447e-09
3.07071e-11
2.44867e-09
-2.0366e-10
4.95532e-10
-2.80967e-10
1.18984e-11
-1.28395e-11
-9.70243e-14
-5.94866e-13
-4.39335e-12
-2.20925e-13
-1.00996e-11
-3.12178e-12
-2.45414e-12
-3.57913e-12
-2.14466e-13
-2.11896e-12
-1.31877e-13
-5.7828e-15
-3.1006e-13
-7.92616e-15
-2.36555e-13
-1.75888e-14
-1.84127e-14
-9.07866e-15
-6.63541e-15
-4.1595e-16
-7.43917e-15
-6.82002e-16
-8.25764e-15
-1.20118e-15
-8.34165e-15
-1.88977e-15
-7.24716e-15
-2.77227e-15
-4.81691e-15
-3.352e-15
-4.93221e-15
-3.07085e-15
-7.11863e-15
-2.41088e-15
-1.22677e-13
-2.45172e-15
-1.26444e-12
-4.09817e-14
-1.60369e-11
-1.72872e-12
-2.47158e-11
-5.35105e-11
-2.17979e-11
-1.01639e-10
-8.14321e-15
-3.11816e-11
-8.93871e-15
-8.26026e-15
-6.01447e-16
-8.47845e-15
-5.67511e-16
-8.96801e-15
-1.00336e-15
-1.70821e-14
-4.66589e-14
-1.46975e-15
-5.97763e-16
-1.69815e-15
-6.69321e-16
-1.72781e-15
-6.56381e-16
-1.48655e-15
-5.41151e-16
-8.96095e-16
-3.10472e-16
7.83076e-16
8.14792e-17
2.06201e-15
3.13563e-16
1.83068e-15
2.24917e-16
7.42816e-10
7.91009e-11
2.25906e-09
3.95552e-10
8.41128e-10
2.67725e-10
4.76197e-12
4.09962e-11
1.85597e-12
8.78764e-13
4.61926e-14
1.565e-13
-5.98898e-12
1.46036e-12
-9.91017e-12
2.70558e-12
-5.86144e-14
1.95994e-12
-7.04864e-14
6.03954e-15
-8.2577e-14
4.11487e-15
-9.98342e-14
1.50903e-15
-1.43603e-14
-6.45884e-15
-6.10421e-15
-1.3962e-14
-5.51969e-15
-1.54452e-15
-7.12192e-15
-1.31197e-15
-8.5559e-15
-3.45787e-15
-8.06707e-15
-5.4662e-15
-5.29687e-15
-6.43193e-15
-2.25734e-15
-5.17752e-15
-1.54526e-15
-3.16682e-15
-1.63419e-15
-2.83212e-15
-3.97647e-14
-2.86927e-15
-1.76529e-12
-3.20487e-15
-7.45502e-12
-3.5039e-15
-1.83432e-12
-5.2227e-15
-4.77055e-15
-6.49966e-15
-7.69919e-16
-1.22802e-14
-3.00395e-16
-8.89358e-15
-3.37642e-16
-9.07407e-15
-5.0683e-16
-1.62084e-14
-4.58454e-14
-1.10537e-15
-4.81002e-16
-1.35901e-15
-5.8499e-16
-1.45384e-15
-6.17868e-16
-1.30375e-15
-5.46273e-16
-8.42826e-16
-3.4779e-16
6.12856e-16
4.7817e-17
2.03257e-15
4.29779e-16
1.82222e-15
3.39455e-16
7.72397e-11
1.86282e-12
2.46871e-09
4.0483e-10
2.52092e-09
9.27034e-10
1.36988e-11
2.59974e-10
5.2208e-12
6.90831e-12
4.94001e-13
3.43765e-12
1.56575e-12
6.20175e-12
-2.69282e-12
6.2873e-12
-1.94989e-12
6.34703e-12
-1.33686e-13
1.42202e-12
-1.44819e-13
1.40531e-14
-1.38075e-13
1.75741e-14
-1.28559e-13
6.20798e-15
-5.41732e-14
-1.03133e-14
-6.08752e-15
-4.22362e-15
-6.92499e-15
-3.09073e-15
-8.02243e-15
-5.75205e-15
-7.34013e-15
-8.44973e-15
-5.07297e-15
-1.00592e-14
-2.23883e-15
-8.86503e-15
-8.23604e-16
-5.72067e-15
-4.79842e-16
-3.6135e-15
-3.52826e-16
-3.00895e-15
-2.43259e-16
-3.31853e-15
-1.52513e-16
-3.60225e-15
-8.17606e-17
-5.30085e-15
-7.74511e-17
-6.51073e-15
5.76948e-18
-6.13709e-15
2.84601e-17
-9.0888e-15
2.91368e-17
-9.21922e-15
2.74178e-17
-1.52721e-14
-4.42913e-14
-8.37901e-16
-3.84865e-16
-1.0889e-15
-5.01756e-16
-1.2185e-15
-5.62808e-16
-1.13815e-15
-5.26782e-16
-7.79733e-16
-3.61653e-16
2.37583e-16
1.04926e-17
1.83823e-15
9.15405e-16
1.63169e-15
4.46427e-16
1.81905e-12
4.53325e-14
1.14453e-09
1.10138e-11
1.35277e-09
8.0734e-11
5.01376e-11
2.16824e-10
-3.45865e-12
3.21227e-11
1.54958e-11
3.98522e-11
3.7746e-12
3.44705e-11
9.3287e-14
1.09786e-11
7.20333e-13
4.99805e-12
-4.53348e-15
8.5109e-13
-2.88894e-14
8.27121e-14
-3.31632e-14
2.28781e-14
-3.59172e-14
7.4904e-15
-1.29904e-14
-1.85945e-15
-3.72226e-15
-2.90613e-15
-2.86544e-15
-4.80594e-15
-2.54347e-15
-8.00676e-15
-1.83727e-15
-1.17532e-14
-8.38539e-16
-1.39624e-14
-5.71228e-17
-1.26177e-14
1.70643e-16
-8.0338e-15
1.96608e-16
-4.58169e-15
2.45016e-16
-3.53234e-15
2.83959e-16
-3.36994e-15
3.15219e-16
-3.63709e-15
3.40397e-16
-5.33034e-15
3.39462e-16
-6.44475e-15
4.15938e-16
-7.29468e-15
4.53375e-16
-1.06735e-14
2.83172e-16
-9.23879e-15
2.83859e-16
-1.41868e-14
-4.21646e-14
-6.37459e-16
-3.04579e-16
-8.69365e-16
-4.20492e-16
-1.01279e-15
-4.95382e-16
-9.84845e-16
-4.86778e-16
-7.07033e-16
-3.52922e-16
-6.15591e-17
-3.10109e-17
3.05859e-15
1.89977e-15
2.95141e-15
6.37261e-16
4.68234e-14
1.67704e-15
1.0442e-11
6.03133e-13
6.1463e-11
2.20649e-12
1.84764e-10
1.88661e-12
8.18492e-12
4.06286e-11
1.59074e-12
1.91288e-11
1.08909e-11
8.90157e-12
5.11547e-12
2.31481e-11
3.51987e-13
6.9446e-12
-3.46448e-14
1.25713e-12
2.33968e-14
4.30037e-14
1.42087e-14
8.67584e-15
7.71312e-15
2.20349e-15
5.60655e-15
-4.38805e-16
5.38694e-15
-2.84413e-15
5.7015e-15
-5.62861e-15
6.79977e-15
-9.96279e-15
7.27258e-15
-1.39557e-14
6.73803e-15
-1.68145e-14
4.38293e-15
-1.53769e-14
2.02767e-15
-9.36428e-15
1.13015e-15
-4.9173e-15
9.11351e-16
-3.62634e-15
8.39409e-16
-3.42579e-15
8.13583e-16
-3.68586e-15
1.12102e-15
-5.60039e-15
1.17662e-15
-6.68027e-15
1.54952e-15
-1.2732e-14
9.97151e-16
-1.27868e-14
5.55598e-16
-9.06757e-15
5.08371e-16
-1.30247e-14
-3.95202e-14
-4.83031e-16
-2.36472e-16
-6.86987e-16
-3.4225e-16
-8.30206e-16
-4.20117e-16
-8.40099e-16
-4.3106e-16
-6.28813e-16
-3.26561e-16
8.58083e-16
8.84193e-17
4.63972e-15
2.50813e-15
5.0696e-15
2.30483e-15
6.15998e-15
2.30887e-15
5.83724e-13
2.03326e-14
2.72518e-12
1.02321e-13
6.44012e-12
-4.94347e-13
2.40557e-11
1.83554e-12
2.44319e-11
4.0813e-12
4.20152e-11
1.51567e-11
4.59609e-11
2.72145e-11
3.79129e-11
2.30048e-11
1.49837e-13
9.41444e-12
1.53134e-14
1.57264e-13
1.5177e-14
8.05942e-15
1.49431e-14
2.25573e-15
1.4517e-14
-1.72768e-16
1.44278e-14
-2.91387e-15
1.68503e-14
-6.51787e-15
1.78048e-14
-1.03524e-14
1.81475e-14
-1.41485e-14
1.59921e-14
-1.73124e-14
9.72505e-15
-1.52802e-14
4.0614e-15
-8.57287e-15
2.07583e-15
-4.46507e-15
1.6022e-15
-3.35231e-15
1.498e-15
-3.3758e-15
1.60827e-15
-3.83806e-15
7.71496e-15
-3.5264e-14
8.54391e-15
-8.31812e-14
5.77563e-15
-4.14897e-14
1.37531e-15
-1.54101e-14
8.31983e-16
-8.82946e-15
7.01832e-16
-1.1906e-14
-3.642e-14
-3.60735e-16
-1.78192e-16
-5.32859e-16
-2.68533e-16
-6.66689e-16
-3.41764e-16
-7.02e-16
-3.64986e-16
-5.5341e-16
-2.90925e-16
8.36472e-16
1.12243e-16
5.0235e-15
2.66118e-15
6.82719e-15
3.57544e-15
5.2856e-15
2.8976e-15
2.25305e-14
2.35876e-15
9.14278e-14
3.45159e-14
6.97437e-13
2.20204e-13
1.31632e-12
2.89175e-12
2.1702e-12
5.69802e-12
1.54356e-11
4.41012e-12
5.31387e-11
1.21403e-11
5.86766e-11
2.487e-11
8.77675e-13
9.37761e-12
4.50148e-14
4.08802e-13
2.54065e-14
2.28012e-14
2.426e-14
2.97905e-15
2.3865e-14
3.89493e-17
2.57439e-14
-2.92582e-15
2.83571e-14
-6.54527e-15
2.84483e-14
-1.03197e-14
2.80129e-14
-1.35618e-14
2.31647e-14
-1.55598e-14
1.23222e-14
-1.17346e-14
4.83481e-15
-6.45876e-15
2.6933e-15
-3.88626e-15
2.35172e-15
-2.98712e-15
2.16706e-15
-3.2474e-15
1.82676e-14
-6.51806e-15
1.25529e-13
-2.39264e-13
1.02024e-13
-6.29736e-13
1.03911e-14
-1.72784e-13
1.59435e-15
-2.41e-14
1.13371e-15
-8.795e-15
8.66369e-16
-1.09335e-14
-3.29079e-14
-2.61608e-16
-1.28404e-16
-4.01226e-16
-2.01033e-16
-5.19916e-16
-2.64855e-16
-5.70063e-16
-2.94038e-16
-4.7803e-16
-2.48588e-16
-3.48363e-17
-1.81831e-17
4.20966e-15
1.70159e-15
7.18037e-15
3.72294e-15
5.80977e-15
3.23296e-15
3.52365e-15
1.06698e-15
3.65822e-14
1.21702e-15
4.06469e-12
8.8092e-14
6.44903e-11
2.53373e-11
4.45423e-11
3.08513e-11
1.32946e-11
2.0767e-11
7.18759e-13
1.18182e-11
3.08111e-12
9.54145e-12
2.67573e-13
4.75406e-12
6.78128e-14
5.83463e-13
3.75947e-14
5.16682e-14
3.46951e-14
6.3994e-15
3.51331e-14
4.1886e-16
3.6622e-14
-2.00012e-15
3.82621e-14
-5.15257e-15
3.74271e-14
-8.2021e-15
3.29419e-14
-1.02117e-14
2.22041e-14
-1.00584e-14
1.1415e-14
-7.7484e-15
5.42314e-15
-5.02383e-15
3.33919e-15
-3.22444e-15
2.94538e-15
-2.79283e-15
2.70138e-15
-3.06126e-15
1.08907e-13
-3.63324e-14
2.82884e-13
-4.30941e-13
2.88719e-13
-6.26905e-13
3.6584e-14
-3.68646e-13
1.38965e-15
-6.78421e-14
1.5164e-15
-1.01512e-14
9.73791e-16
-9.99946e-15
-2.90565e-14
-1.79513e-16
-8.62182e-17
-2.87953e-16
-1.41093e-16
-3.88211e-16
-1.93064e-16
-4.44391e-16
-2.23146e-16
-4.00429e-16
-2.01938e-16
-1.18076e-16
-5.94745e-17
2.63504e-15
2.61813e-16
5.64696e-15
2.06394e-15
5.54788e-15
2.25208e-15
1.69126e-15
9.77995e-16
2.1298e-15
1.89314e-16
3.65068e-11
1.61993e-12
7.83581e-11
2.06045e-11
7.99265e-11
2.60975e-11
7.63574e-11
2.15566e-11
5.9461e-11
2.41545e-11
4.36231e-11
2.20496e-11
1.58871e-11
1.57455e-11
3.22123e-12
5.72321e-12
5.64135e-13
2.51031e-12
5.16123e-14
5.15874e-13
4.07147e-14
9.116e-15
3.78762e-14
2.87835e-15
3.56945e-14
-2.96767e-15
3.1514e-14
-4.99594e-15
2.55244e-14
-5.89036e-15
1.83353e-14
-6.13166e-15
1.10252e-14
-5.30854e-15
6.05672e-15
-3.98062e-15
4.13594e-15
-2.68321e-15
3.81413e-15
-2.57274e-15
3.57204e-15
-2.88429e-15
2.96377e-13
-9.56679e-14
4.09181e-13
-4.82028e-13
3.6511e-13
-5.74327e-13
1.38117e-13
-5.6584e-13
3.19345e-15
-1.3832e-13
1.82747e-15
-1.11391e-14
1.0678e-15
-8.91374e-15
-2.49811e-14
-1.09245e-16
-5.05606e-17
-1.88884e-16
-8.90659e-17
-2.69195e-16
-1.28532e-16
-3.24455e-16
-1.55898e-16
-3.16136e-16
-1.51907e-16
-1.74419e-16
-8.32787e-17
3.01932e-16
5.72283e-17
2.29363e-15
2.62995e-16
2.56395e-15
5.55292e-16
1.25758e-15
3.79899e-16
1.32112e-15
4.61549e-17
1.59273e-12
2.83196e-14
7.22519e-11
4.27744e-13
9.24591e-11
1.48671e-11
8.74835e-11
2.36967e-11
8.85958e-11
2.44253e-11
8.79528e-11
1.98571e-11
8.71661e-11
1.31714e-11
7.4961e-11
1.45006e-11
6.42497e-11
9.74074e-12
6.6719e-12
3.09832e-12
-2.04861e-13
1.82919e-13
-1.35742e-14
-1.97678e-13
2.52391e-14
-3.77369e-14
2.40022e-14
-1.00259e-14
2.05558e-14
-4.68169e-15
1.62538e-14
-4.39966e-15
1.09803e-14
-4.09321e-15
6.53282e-15
-3.15056e-15
4.92665e-15
-2.24482e-15
4.34101e-15
-2.29422e-15
5.24737e-15
-3.89338e-15
4.98458e-13
-1.7073e-13
4.83492e-13
-4.58484e-13
4.24358e-13
-5.06652e-13
3.03952e-13
-5.37776e-13
2.57009e-15
-1.74389e-13
1.84748e-15
-1.08353e-14
1.20781e-15
-7.61371e-15
-2.07817e-14
-4.48466e-17
-1.96911e-17
-9.8378e-17
-4.39396e-17
-1.58437e-16
-7.14709e-17
-2.0766e-16
-9.39433e-17
-2.21251e-16
-9.96688e-17
-1.63591e-16
-7.28584e-17
-2.30552e-17
-1.00776e-17
2.22075e-16
5.86094e-17
4.25602e-16
3.39467e-17
3.02212e-16
4.54329e-17
2.34745e-16
2.83513e-17
2.65662e-14
1.41767e-15
2.1829e-12
6.80289e-14
2.30651e-11
3.90296e-13
8.36945e-11
1.16594e-12
9.97183e-11
1.11512e-11
1.01449e-10
1.86574e-11
1.00458e-10
1.16317e-11
1.00573e-10
1.24382e-11
9.80145e-11
8.92743e-12
9.26533e-11
5.05528e-12
4.82309e-12
6.12632e-13
1.05133e-13
-5.25271e-14
3.42953e-14
-1.94908e-14
1.80882e-14
-5.88482e-15
1.86472e-14
-3.95143e-15
1.6221e-14
-3.81155e-15
1.13506e-14
-3.41084e-15
6.74616e-15
-2.4554e-15
5.41874e-15
-1.84732e-15
4.79998e-15
-1.97699e-15
3.07278e-14
-3.01312e-14
6.07368e-13
-2.67467e-13
5.53504e-13
-3.96021e-13
4.83989e-13
-4.28674e-13
3.96308e-13
-4.41515e-13
6.92425e-15
-1.50378e-13
1.9002e-15
-8.89763e-15
1.31601e-15
-6.139e-15
-1.65124e-14
2.02623e-17
2.40874e-17
-7.82057e-18
-3.25538e-18
-4.84392e-17
-2.03151e-17
-8.82822e-17
-3.70089e-17
-1.12354e-16
-4.67114e-17
-1.01938e-16
-4.17019e-17
-5.29724e-17
-2.11543e-17
5.27865e-18
3.58335e-19
2.88648e-17
7.03561e-18
3.95511e-17
1.07797e-17
3.02997e-17
1.00868e-17
1.27287e-15
3.47749e-17
6.88553e-14
2.07522e-15
4.51676e-13
1.3756e-14
1.60691e-12
3.13541e-14
1.53581e-11
2.77025e-13
2.6501e-11
9.91196e-14
5.82664e-11
1.46366e-13
1.03418e-10
4.0919e-12
1.01369e-10
7.54043e-12
3.38531e-11
1.44693e-12
4.01503e-13
3.11126e-15
8.52314e-14
-2.70543e-14
3.42944e-14
-8.47534e-15
2.47396e-14
-5.4842e-15
2.21544e-14
-3.33068e-15
1.76309e-14
-3.01074e-15
1.17274e-14
-2.51371e-15
6.91461e-15
-1.85504e-15
5.97375e-15
-1.52076e-15
5.31412e-15
-1.62406e-15
3.18149e-13
-2.671e-14
6.89564e-13
-2.72318e-13
6.21308e-13
-3.19239e-13
5.41929e-13
-3.40764e-13
2.81262e-13
-3.66598e-13
4.69523e-15
-7.58098e-14
2.13489e-15
-5.98083e-15
1.39688e-15
-4.65411e-15
-1.22454e-14
1.25426e-16
4.80329e-17
1.31013e-16
7.25192e-17
1.02219e-16
8.13843e-17
4.96517e-17
7.21055e-17
2.30983e-17
4.56994e-17
-2.7415e-18
-1.01404e-18
-2.58038e-18
-9.27055e-19
1.78304e-17
7.19224e-18
2.99145e-17
1.04255e-17
3.26117e-17
1.04127e-17
3.35801e-17
1.02234e-17
4.47668e-17
1.05011e-17
1.8581e-15
3.92733e-17
1.56916e-14
1.67529e-16
4.75577e-14
5.32467e-16
3.2327e-13
3.96273e-15
4.19176e-13
3.96665e-15
5.68432e-13
1.34827e-15
8.23684e-12
7.64662e-14
1.03953e-11
6.16935e-15
4.63748e-12
-7.52263e-14
5.10818e-13
-6.59642e-15
-3.77911e-14
-1.94998e-15
3.15256e-14
-1.26729e-15
3.46149e-14
-1.32501e-15
2.28983e-14
-1.35305e-15
1.57405e-14
-1.51516e-15
1.13376e-14
-1.67471e-15
7.47839e-15
-1.54439e-15
6.67844e-15
-1.2419e-15
6.01348e-15
-1.26606e-15
3.86193e-13
-1.32369e-15
7.57164e-13
-1.9136e-13
6.76782e-13
-2.29822e-13
5.87959e-13
-2.43288e-13
1.90661e-13
-2.26165e-13
5.53347e-15
-2.3209e-14
2.52811e-15
-3.38629e-15
1.46858e-15
-3.14415e-15
-8.08826e-15
1.65038e-16
4.26344e-17
2.81128e-16
7.92472e-17
3.91216e-16
1.30744e-16
4.4592e-16
1.91481e-16
4.32969e-16
2.23633e-16
3.72885e-16
2.18296e-16
3.15687e-16
1.9314e-16
2.67552e-16
1.58608e-16
2.31749e-16
1.29099e-16
1.98476e-16
1.02226e-16
1.91504e-16
8.33177e-17
2.12985e-16
8.13448e-17
2.80002e-16
6.80969e-17
6.50044e-16
9.18487e-17
1.68519e-15
1.93817e-16
6.51292e-15
2.44653e-16
1.15048e-14
2.74565e-16
1.33372e-14
2.19001e-16
9.05576e-14
1.80802e-16
9.7643e-14
2.08777e-16
2.4434e-14
-4.75491e-16
2.2423e-14
-1.47674e-17
2.0875e-14
-1.72802e-16
1.94977e-14
-4.15027e-16
1.74637e-14
-7.31235e-16
1.53877e-14
-1.01688e-15
1.40317e-14
-1.20936e-15
1.28652e-14
-1.37564e-15
1.09202e-14
-1.46011e-15
7.84092e-15
-1.24783e-15
7.16783e-15
-9.05408e-16
6.33939e-15
-8.69232e-16
7.84761e-13
-2.28238e-14
7.13965e-13
-1.48375e-13
6.06083e-13
-1.26247e-13
9.84174e-14
-7.08498e-14
4.90346e-15
-3.38852e-15
2.71452e-15
-1.50218e-15
1.54765e-15
-1.65779e-15
-4.15112e-15
1.47004e-16
2.88734e-17
2.79357e-16
6.32658e-17
4.68144e-16
1.15141e-16
7.17318e-16
1.81364e-16
9.90569e-16
2.60449e-16
1.19323e-15
3.59907e-16
1.30603e-15
4.52378e-16
1.34368e-15
4.96938e-16
1.33767e-15
5.0767e-16
1.30271e-15
4.90221e-16
1.25324e-15
4.53247e-16
1.23935e-15
4.02009e-16
1.27782e-15
3.69127e-16
1.48913e-15
3.34956e-16
2.01746e-15
3.01135e-16
2.81804e-15
3.04996e-16
3.64756e-15
3.06375e-16
4.08109e-15
2.76144e-16
4.76001e-15
2.2922e-16
6.00349e-15
1.83159e-16
7.75946e-15
1.22263e-16
1.05589e-14
2.80573e-17
1.31968e-14
-1.72576e-16
1.56077e-14
-4.45468e-16
1.78188e-14
-7.10857e-16
1.90647e-14
-9.23302e-16
1.8747e-14
-1.0341e-15
1.7839e-14
-1.03724e-15
1.56067e-14
-9.52209e-16
1.08462e-14
-7.72745e-16
7.65209e-15
-4.24857e-16
7.99381e-15
-3.39111e-16
2.88647e-13
-2.21039e-15
7.74358e-13
-2.13532e-14
4.08814e-13
-2.21131e-14
1.88224e-14
-6.45688e-15
4.83234e-15
-5.14669e-16
2.75643e-15
-1.51284e-16
1.60251e-15
-1.79797e-16
-4.73314e-16
9.26575e-17
1.0925e-17
2.09991e-16
3.07855e-17
4.02603e-16
6.97026e-17
6.76623e-16
1.31554e-16
1.03202e-15
2.15777e-16
1.49668e-15
3.11334e-16
2.08266e-15
4.21925e-16
2.77489e-15
5.42645e-16
3.50211e-15
7.0558e-16
4.2112e-15
8.72709e-16
4.89428e-15
1.01353e-15
5.56114e-15
1.11273e-15
6.19804e-15
1.15729e-15
6.78571e-15
1.13752e-15
7.41843e-15
1.06e-15
8.23632e-15
9.46341e-16
9.33854e-15
8.15386e-16
1.07142e-14
6.82685e-16
1.24549e-14
5.2644e-16
1.46449e-14
3.44922e-16
1.72959e-14
1.4064e-16
2.032e-14
-9.18965e-17
2.33744e-14
-3.13085e-16
2.5478e-14
-4.64366e-16
2.56427e-14
-5.36808e-16
2.51398e-14
-5.12936e-16
2.36976e-14
-4.33109e-16
2.11391e-14
-2.87715e-16
1.78236e-14
-1.15221e-16
1.32235e-14
6.03904e-17
8.67085e-15
1.78698e-16
8.47767e-15
2.42528e-16
7.43571e-14
8.90124e-16
2.4027e-13
1.35491e-15
1.835e-13
2.91636e-15
4.3922e-14
7.60726e-15
3.87528e-15
3.20319e-15
2.55104e-15
9.60741e-16
1.52665e-15
1.09975e-15
2.36624e-15
3.22416e-17
1.76889e-18
9.29584e-17
6.70634e-18
2.21791e-16
2.02007e-17
4.50045e-16
4.9581e-17
8.02846e-16
1.02806e-16
1.2942e-15
1.81382e-16
1.95449e-15
2.86521e-16
2.82016e-15
4.1859e-16
4.00179e-15
5.59492e-16
5.5718e-15
7.13176e-16
7.56472e-15
8.72839e-16
9.96403e-15
1.01843e-15
1.26701e-14
1.12323e-15
1.55142e-14
1.16095e-15
1.82932e-14
1.11475e-15
2.08096e-14
9.82918e-16
2.29782e-14
7.95749e-16
2.48595e-14
5.38333e-16
2.65272e-14
2.68371e-16
2.80849e-14
1.99797e-17
2.90189e-14
-1.93112e-16
2.93832e-14
-3.24725e-16
2.95328e-14
-3.31116e-16
2.93648e-14
-3.74485e-16
2.81398e-14
-2.59006e-16
2.53502e-14
-8.47419e-17
2.15805e-14
1.26635e-16
1.83486e-14
3.27492e-16
1.61252e-14
5.31466e-16
1.41317e-14
7.99209e-16
1.14853e-14
1.04759e-15
7.52761e-15
1.03477e-15
5.50185e-15
6.37631e-16
5.8203e-15
3.95056e-16
9.62962e-15
4.65887e-16
9.4018e-15
6.07612e-16
3.61232e-15
1.22695e-15
2.03229e-15
1.40124e-15
1.50141e-15
2.04667e-15
5.27653e-15
5.3397e-18
1.15273e-19
1.94244e-17
5.47383e-19
5.88055e-17
2.10344e-18
1.50643e-16
6.6968e-18
3.35423e-16
1.80693e-17
6.60355e-16
4.17053e-17
1.18062e-15
8.33701e-17
1.96151e-15
1.48354e-16
3.06289e-15
2.3402e-16
4.56269e-15
3.33854e-16
6.5285e-15
4.37655e-16
8.96959e-15
5.27963e-16
1.18049e-14
5.80863e-16