/*--------------------------------*- C++ -*----------------------------------*\
| =========                 |                                                 |
| \\      /  F ield         | OpenFOAM: The Open Source CFD Toolbox           |
|  \\    /   O peration     | Version:  5.0                                   |
|   \\  /    A nd           | Web:      www.OpenFOAM.org                      |
|    \\/     M anipulation  |                                                 |
\*---------------------------------------------------------------------------*/
FoamFile
{
    version     2.0;
    format      ascii;
    class       volScalarField;
    location    "0.95";
    object      k;
}
// * * * * * * * * * * * * * * * * * * * * * * * * * * * * * * * * * * * * * //

dimensions      [0 2 -2 0 0 0 0];

internalField   nonuniform List<scalar> 
1935
(
0.376472
0.340838
0.31499
0.296608
0.283665
0.274596
0.268264
0.263873
0.26087
0.258869
0.257593
0.256835
0.256426
0.256217
0.256071
0.255852
0.255428
0.25467
0.253455
0.251669
0.249212
0.246002
0.241976
0.237097
0.231354
0.224764
0.217377
0.20932
0.200709
0.191674
0.18236
0.172919
0.163509
0.154287
0.145405
0.137003
0.129211
0.122145
0.115903
0.110571
0.106214
0.102883
0.100614
0.40086
0.423934
0.445952
0.46674
0.361709
0.382004
0.401918
0.421244
0.333217
0.351369
0.369665
0.387958
0.312916
0.32949
0.346593
0.364142
0.298576
0.313975
0.330159
0.347091
0.28846
0.30294
0.318355
0.334695
0.28131
0.295027
0.309743
0.325467
0.276249
0.289298
0.303347
0.318414
0.272677
0.285119
0.298518
0.312893
0.270181
0.282065
0.294831
0.308497
0.268471
0.279841
0.291999
0.304962
0.267333
0.278235
0.289823
0.302108
0.266595
0.277078
0.288143
0.299797
0.266107
0.276224
0.286822
0.297904
0.265729
0.275533
0.285726
0.296303
0.265323
0.274867
0.284716
0.29486
0.264751
0.274084
0.283648
0.293431
0.263878
0.273041
0.282375
0.291863
0.262571
0.271599
0.280749
0.289999
0.260708
0.269624
0.278625
0.287685
0.258177
0.266995
0.27587
0.284775
0.254885
0.263608
0.272368
0.28114
0.250761
0.259378
0.268024
0.276669
0.245757
0.254249
0.262766
0.27128
0.239853
0.24819
0.256556
0.264923
0.233058
0.241202
0.249385
0.257577
0.225412
0.233319
0.241279
0.249261
0.217026
0.224627
0.232302
0.240028
0.208039
0.215287
0.222625
0.230033
0.198582
0.205431
0.212388
0.219437
0.188801
0.195208
0.201743
0.208391
0.178854
0.184781
0.190851
0.197058
0.168905
0.174316
0.179886
0.185613
0.159118
0.163985
0.169022
0.174234
0.149653
0.153953
0.15843
0.163095
0.140659
0.144377
0.148274
0.152367
0.132275
0.135407
0.138709
0.142206
0.124629
0.127177
0.129879
0.132764
0.117832
0.119813
0.121923
0.124189
0.11198
0.113427
0.114968
0.116628
0.107153
0.108113
0.10913
0.110224
0.103408
0.103939
0.104498
0.105091
0.100778
0.100943
0.101113
0.101291
0.487053
0.506171
0.523874
0.541017
0.558323
0.575867
0.593856
0.61232
0.630987
0.649611
0.667976
0.685982
0.703096
0.718244
0.730444
0.739184
0.743801
0.743884
0.739565
0.730956
0.718849
0.70441
0.688703
0.672853
0.657934
0.644586
0.632747
0.621659
0.610229
0.597134
0.581003
0.560763
0.535953
0.506193
0.471245
0.430623
0.383201
0.326142
0.25007
0.115571
0.440884
0.460461
0.479517
0.498611
0.518095
0.538062
0.558493
0.579299
0.600158
0.620595
0.6402
0.658892
0.675976
0.690106
0.700653
0.70741
0.710075
0.708602
0.70312
0.693943
0.681974
0.668322
0.654035
0.640066
0.627101
0.615396
0.604619
0.59398
0.58247
0.569031
0.552666
0.532749
0.508793
0.48049
0.447492
0.409266
0.364699
0.310901
0.238735
0.111058
0.407227
0.427269
0.44745
0.468056
0.489164
0.510729
0.53258
0.554498
0.576095
0.596848
0.616531
0.634858
0.650846
0.663475
0.672373
0.677336
0.678375
0.675673
0.669507
0.660349
0.649037
0.636531
0.623737
0.611415
0.599946
0.589327
0.579148
0.568671
0.557038
0.543458
0.52728
0.507931
0.484993
0.458171
0.427122
0.391281
0.349445
0.298656
0.229939
0.107772
0.38314
0.40347
0.424361
0.445884
0.467999
0.490455
0.512971
0.535231
0.556769
0.577049
0.595975
0.613204
0.627688
0.638729
0.646043
0.649518
0.649355
0.645872
0.639472
0.6307
0.620295
0.609046
0.597658
0.586655
0.576246
0.566299
0.556424
0.546029
0.534416
0.520933
0.505065
0.486388
0.464561
0.439286
0.410202
0.376669
0.337389
0.289326
0.223587
0.10564
0.365773
0.386129
0.407301
0.429217
0.451732
0.474498
0.497124
0.519216
0.540253
0.559699
0.577498
0.593354
0.60634
0.615918
0.621865
0.624222
0.623277
0.619432
0.613154
0.604991
0.595572
0.585518
0.57535
0.5654
0.555761
0.546275
0.536596
0.526245
0.514681
0.501405
0.486004
0.468139
0.447518
0.423835
0.396671
0.365316
0.328382
0.282746
0.219517
0.104554
0.352947
0.373057
0.394119
0.415972
0.438372
0.46098
0.483301
0.504877
0.525153
0.54363
0.560282
0.574819
0.586461
0.594815
0.599736
0.601364
0.600036
0.596185
0.590289
0.582856
0.574408
0.56542
0.556265
0.547152
0.538104
0.52897
0.519459
0.509199
0.497792
0.484862
0.470077
0.453147
0.433791
0.411683
0.386354
0.357019
0.322202
0.278687
0.217514
0.104385
0.343157
0.362772
0.383391
0.404806
0.426719
0.448746
0.470437
0.491262
0.510639
0.528167
0.543786
0.557179
0.567721
0.575149
0.579405
0.580672
0.579306
0.57573
0.570398
0.563757
0.556232
0.548185
0.539882
0.531457
0.522904
0.514094
0.504804
0.494757
0.483657
0.471217
0.457167
0.441247
0.423177
0.402602
0.378997
0.351508
0.318569
0.276873
0.21733
0.104994
0.335421
0.354335
0.374245
0.394922
0.416051
0.437237
0.458025
0.477922
0.496381
0.513005
0.527694
0.54015
0.549861
0.556661
0.560579
0.561798
0.560666
0.557576
0.55293
0.547113
0.540468
0.533273
0.525723
0.517912
0.509832
0.501386
0.492413
0.482712
0.472066
0.46025
0.447038
0.432186
0.415402
0.396297
0.374294
0.348466
0.317169
0.276998
0.218697
0.106252
0.329126
0.347186
0.366189
0.385908
0.406034
0.426188
0.445938
0.464828
0.482338
0.498064
0.511891
0.523579
0.532701
0.539135
0.542978
0.544395
0.543699
0.541238
0.537359
0.532385
0.526588
0.520192
0.513348
0.506136
0.498558
0.490554
0.482014
0.472798
0.462745
0.451676
0.43939
0.425646
0.410135
0.39243
0.371901
0.347557
0.317674
0.278753
0.221345
0.108059
0.3239
0.341009
0.358978
0.377596
0.396575
0.415569
0.434189
0.452031
0.468629
0.483533
0.496566
0.507576
0.516267
0.522525
0.52646
0.528238
0.528101
0.526344
0.523256
0.519111
0.514141
0.508518
0.502371
0.49578
0.488764
0.481297
0.473313
0.464716
0.455384
0.445168
0.43388
0.421274
0.407016
0.390641
0.371468
0.34844
0.319762
0.281836
0.225008
0.110378
0.319518
0.335632
0.352507
0.369951
0.387707
0.405469
0.422898
0.439639
0.455316
0.469517
0.481912
0.492351
0.50069
0.506873
0.510992
0.513189
0.513653
0.512612
0.510303
0.506955
0.502769
0.497902
0.492461
0.486531
0.480151
0.473322
0.466011
0.458156
0.449656
0.440383
0.430153
0.418704
0.405678
0.390568
0.372643
0.350788
0.323132
0.285971
0.229393
0.113283
0.315834
0.330959
0.346734
0.362991
0.379508
0.396021
0.412238
0.427855
0.442557
0.456008
0.467851
0.477852
0.485935
0.49211
0.496449
0.499063
0.500101
0.499743
0.498179
0.495601
0.492178
0.488056
0.48334
0.478118
0.472447
0.46635
0.459819
0.452814
0.445253
0.437008
0.427887
0.417613
0.405798
0.391896
0.375126
0.354314
0.327514
0.29091
0.234327
0.11632
0.312738
0.326916
0.34163
0.356736
0.372046
0.387336
0.402359
0.416854
0.430554
0.443177
0.454425
0.464055
0.471969
0.478176
0.482733
0.485731
0.487291
0.487556
0.486682
0.484827
0.482142
0.478761
0.474789
0.470321
0.465426
0.460144
0.454484
0.448418
0.441871
0.434714
0.426741
0.417654
0.407032
0.39429
0.378597
0.35872
0.332641
0.296429
0.239633
0.119387
0.310125
0.323428
0.337154
0.351181
0.365351
0.379478
0.393354
0.40676
0.419468
0.431244
0.44185
0.45108
0.458819
0.465043
0.469785
0.473116
0.475131
0.475947
0.475694
0.474509
0.472525
0.469868
0.466649
0.462964
0.458892
0.454484
0.449759
0.444696
0.439221
0.433195
0.426397
0.418503
0.40906
0.397439
0.382763
0.363738
0.338272
0.302322
0.245155
0.122408
0.307884
0.320401
0.333234
0.346279
0.359405
0.372457
0.385263
0.397639
0.409397
0.420345
0.430294
0.439075
0.446578
0.452755
0.457614
0.4612
0.463588
0.464872
0.465163
0.464581
0.463247
0.461284
0.458806
0.45591
0.452681
0.449178
0.445426
0.441405
0.437036
0.432168
0.426561
0.419863
0.411586
0.40106
0.387355
0.369121
0.34419
0.308403
0.250748
0.125317
0.305888
0.31772
0.329769
0.341945
0.35414
0.366226
0.37806
0.389491
0.400366
0.410528
0.419827
0.428128
0.435331
0.441382
0.446269
0.450017
0.452681
0.454338
0.455084
0.455025
0.454277
0.452957
0.451183
0.449055
0.446662
0.444068
0.441298
0.438332
0.435081
0.431381
0.42697
0.421466
0.414345
0.404893
0.39213
0.374645
0.350194
0.314503
0.256281
0.128055
0.303993
0.315244
0.326622
0.338052
0.349441
0.360682
0.371659
0.382249
0.392325
0.401762
0.410441
0.418252
0.425112
0.430966
0.435794
0.439608
0.442447
0.444376
0.445478
0.445851
0.445607
0.444861
0.443732
0.442325
0.440732
0.43902
0.437215
0.43529
0.433149
0.430611
0.427389
0.423073
0.417098
0.408707
0.396866
0.380105
0.356101
0.320464
0.261635
0.130572
0.302042
0.312812
0.323633
0.334439
0.345149
0.355674
0.365918
0.37578
0.385156
0.393945
0.402052
0.409389
0.415887
0.421496
0.426196
0.429991
0.432911
0.435012
0.436369
0.437077
0.437242
0.436982
0.43642
0.435663
0.434809
0.433926
0.433041
0.432122
0.431064
0.429665
0.427615
0.424472
0.419632
0.412292
0.401364
0.385315
0.361744
0.326145
0.266701
0.132823
0.29987
0.310251
0.320621
0.330918
0.341073
0.35101
0.360646
0.369898
0.378681
0.386911
0.394512
0.401412
0.407555
0.412899
0.417426
0.421137
0.42406
0.426244
0.427761
0.428703
0.429178
0.429307
0.429215
0.429019
0.428821
0.428694
0.428664
0.428697
0.428673
0.428377
0.427471
0.425482
0.421764
0.415466
0.405447
0.39011
0.366972
0.331418
0.271383
0.134774
0.29731
0.307383
0.317395
0.327289
0.337003
0.34647
0.355619
0.364379
0.372677
0.380446
0.387619
0.394138
0.399957
0.405043
0.409377
0.412966
0.415833
0.418028
0.419622
0.420706
0.421392
0.421806
0.422082
0.422346
0.422708
0.423246
0.42399
0.424902
0.425853
0.42661
0.426811
0.425947
0.423334
0.418072
0.408963
0.394345
0.371657
0.336171
0.275598
0.136398
0.294202
0.304033
0.313765
0.323346
0.332718
0.341823
0.350596
0.358975
0.366897
0.374301
0.381133
0.387342
0.392888
0.397743
0.401893
0.405344
0.408123
0.410277
0.41188
0.413026
0.413832
0.414434
0.414973
0.415591
0.416408
0.417513
0.418939
0.420648
0.422503
0.424254
0.425514
0.425742
0.424211
0.419974
0.411778
0.397895
0.375685
0.340314
0.279282
0.137691
0.290403
0.300038
0.309552
0.318893
0.328008
0.336841
0.345336
0.353434
0.36108
0.368218
0.374797
0.380774
0.38611
0.390781
0.394775
0.398098
0.400777
0.402862
0.404426
0.405571
0.406421
0.40712
0.407825
0.408695
0.409864
0.411433
0.413445
0.415861
0.418541
0.421218
0.423482
0.424759
0.424283
0.421059
0.413779
0.400653
0.378966
0.343781
0.28241
0.138732
0.285786
0.295259
0.304597
0.313753
0.322675
0.331313
0.339611
0.347517
0.354976
0.361937
0.368351
0.374176
0.379374
0.38392
0.387802
0.391025
0.393615
0.395621
0.397122
0.398221
0.399053
0.399775
0.400563
0.401592
0.403015
0.404949
0.40745
0.410483
0.413904
0.417433
0.420637
0.422912
0.423455
0.421225
0.414863
0.402522
0.38142
0.346541
0.28506
0.140229
0.280257
0.289581
0.29877
0.307777
0.316554
0.325052
0.33322
0.341005
0.348355
0.35522
0.361551
0.367302
0.372436
0.376923
0.380747
0.383911
0.386438
0.388375
0.389804
0.390834
0.391607
0.392299
0.393103
0.394212
0.395803
0.398011
0.400907
0.404464
0.40854
0.412846
0.416929
0.420149
0.421667
0.420395
0.414928
0.403366
0.382874
0.348378
0.286992
0.14222
0.273748
0.282923
0.291972
0.300851
0.309513
0.317911
0.325996
0.333717
0.341023
0.347861
0.354179
0.35993
0.36507
0.369563
0.373389
0.376542
0.379042
0.380934
0.382298
0.383253
0.383955
0.384588
0.385359
0.386486
0.388172
0.390575
0.39379
0.397806
0.402475
0.407492
0.412382
0.41648
0.418909
0.418545
0.41394
0.40315
0.383295
0.34926
0.28814
0.144003
0.266229
0.275242
0.284146
0.2929
0.301461
0.309782
0.317816
0.325515
0.332824
0.339689
0.346056
0.351869
0.357078
0.361639
0.365522
0.368713
0.371229
0.373116
0.374452
0.375354
0.375982
0.376532
0.377236
0.378337
0.380069
0.382616
0.386097
0.39051
0.395702
0.40136
0.406985
0.411887
0.41516
0.415648
0.411868
0.401838
0.382646
0.349151
0.288469
0.145446
0.257708
0.266532
0.275273
0.283893
0.29235
0.300603
0.308603
0.316303
0.323649
0.330584
0.337045
0.342967
0.348294
0.352976
0.356976
0.360273
0.362868
0.364794
0.366127
0.366987
0.367543
0.368007
0.368629
0.369681
0.371427
0.374085
0.377789
0.382547
0.388205
0.394434
0.400718
0.406347
0.41039
0.411667
0.408666
0.399382
0.380876
0.348003
0.287932
0.146503
0.248229
0.256828
0.265378
0.273842
0.282183
0.290359
0.298328
0.306039
0.313439
0.320466
0.327056
0.333142
0.338652
0.343517
0.347684
0.351118
0.353813
0.355798
0.357144
0.357975
0.35847
0.358857
0.359404
0.360405
0.362159
0.364912
0.368814
0.373879
0.379949
0.386681
0.393545
0.399815
0.404547
0.406541
0.404271
0.395711
0.377916
0.34575
0.286477
0.147134
0.237923
0.246237
0.254544
0.262813
0.271009
0.279097
0.287034
0.294771
0.302251
0.309407
0.316164
0.322438
0.328144
0.333198
0.337533
0.341103
0.343896
0.345937
0.347298
0.348107
0.348556
0.348889
0.349388
0.350365
0.352143
0.355002
0.359093
0.364437
0.370869
0.378037
0.385399
0.392222
0.397555
0.40019
0.398593
0.390736
0.373675
0.342307
0.284031
0.147294
0.226976
0.234964
0.24299
0.251029
0.259052
0.267027
0.274913
0.282662
0.290213
0.29749
0.304404
0.310856
0.31674
0.321955
0.32642
0.330082
0.332929
0.334989
0.336343
0.337128
0.337548
0.337861
0.338352
0.339345
0.3412
0.344215
0.348516
0.354127
0.360878
0.368414
0.376194
0.383478
0.389314
0.392504
0.391517
0.384334
0.368033
0.337562
0.280503
0.146927
0.215535
0.223152
0.230855
0.238627
0.246442
0.254273
0.262083
0.26982
0.27742
0.284796
0.291841
0.298434
0.304444
0.30975
0.314256
0.317913
0.320715
0.322707
0.323983
0.324717
0.325134
0.325467
0.325982
0.32705
0.329096
0.332393
0.336985
0.342871
0.349879
0.357674
0.365752
0.373404
0.379664
0.383323
0.382878
0.37634
0.360826
0.331364
0.275768
0.145954
0.203764
0.210965
0.218303
0.225765
0.233334
0.240988
0.24869
0.256388
0.264009
0.271451
0.278585
0.285259
0.291308
0.296586
0.300992
0.304481
0.307067
0.30882
0.309883
0.310511
0.310954
0.31136
0.311968
0.313231
0.315622
0.319396
0.324489
0.330731
0.337963
0.345894
0.35409
0.361911
0.368424
0.372436
0.372457
0.366536
0.35185
0.323528
0.269667
0.144275
0.191839
0.19858
0.205508
0.21262
0.219906
0.227348
0.234913
0.242544
0.250157
0.25763
0.264801
0.271473
0.277442
0.282532
0.286626
0.289704
0.29182
0.293134
0.293878
0.294324
0.294736
0.295291
0.29615
0.29776
0.300715
0.305288
0.311236
0.31808
0.325622
0.333643
0.341736
0.349337
0.355726
0.359851
0.360179
0.354787
0.340943
0.313885
0.262041
0.141765
0.17994
0.186178
0.192655
0.199377
0.206345
0.213546
0.220949
0.228494
0.236079
0.243553
0.250708
0.257289
0.263029
0.267696
0.271205
0.273627
0.275088
0.275783
0.276018
0.276119
0.276349
0.27695
0.278259
0.280809
0.285029
0.290874
0.29794
0.305595
0.313486
0.321487
0.329289
0.336418
0.342299
0.346077
0.346358
0.341273
0.328175
0.302422
0.252813
0.138309
0.168247
0.17394
0.179924
0.186218
0.192835
0.199772
0.207002
0.214455
0.22201
0.229474
0.236574
0.24297
0.248285
0.25229
0.255029
0.256598
0.257154
0.256955
0.256386
0.255908
0.255852
0.256671
0.259175
0.263709
0.270076
0.277759
0.286143
0.294546
0.302531
0.310169
0.317386
0.323759
0.32877
0.331744
0.331561
0.326469
0.313892
0.289331
0.242023
0.133806
0.156928
0.162036
0.167483
0.173308
0.17954
0.186194
0.193246
0.200623
0.208172
0.215646
0.222685
0.228807
0.233549
0.236769
0.238527
0.238902
0.238125
0.236668
0.235134
0.234148
0.234317
0.23635
0.241086
0.248598
0.258049
0.268201
0.278044
0.286824
0.294222
0.300774
0.306802
0.311957
0.315654
0.317381
0.316351
0.3109
0.298491
0.27484
0.229706
0.128088
0.146145
0.150621
0.155479
0.16078
0.166581
0.172919
0.179789
0.187115
0.194715
0.202269
0.209302
0.215167
0.219319
0.221598
0.222016
0.220727
0.218226
0.215297
0.212842
0.211798
0.213112
0.217613
0.225845
0.237504
0.251148
0.264583
0.275908
0.284293
0.290159
0.294673
0.298537
0.30165
0.303455
0.30349
0.30114
0.294873
0.282189
0.259017
0.21573
0.12073
0.136049
0.139842
0.144042
0.148737
0.15402
0.159969
0.166614
0.173897
0.181615
0.189383
0.19659
0.202386
0.206021
0.207198
0.205933
0.202618
0.198124
0.193619
0.190395
0.189747
0.192936
0.200976
0.214121
0.231492
0.250807
0.268562
0.281437
0.2888
0.292158
0.293416
0.293845
0.293758
0.292773
0.290399
0.286078
0.278386
0.264816
0.241392
0.19881
0.112085
0.126795
0.12985
0.133305
0.137273
0.141887
0.147278
0.153547
0.160696
0.168557
0.176711
0.184429
0.190612
0.19405
0.194086
0.190913
0.185318
0.178693
0.172633
0.168786
0.168629
0.173691
0.185459
0.204578
0.229684
0.256939
0.280817
0.29636
0.302546
0.302404
0.299098
0.294606
0.289756
0.284513
0.278418
0.271019
0.261038
0.245903
0.221477
0.179359
0.102207
0.118548
0.120826
0.123449
0.12654
0.130257
0.134789
0.140329
0.147013
0.154824
0.163455
0.17217
0.179601
0.183716
0.18284
0.177435
0.169198
0.160429
0.153108
0.148815
0.148827
0.15475
0.168917
0.193612
0.228319
0.267319
0.301076
0.321783
0.327281
0.323282
0.314741
0.304051
0.292391
0.280342
0.268189
0.255977
0.242556
0.225035
0.19917
0.15872
0.0904475
0.111487
0.112991
0.114738
0.116832
0.119419
0.122699
0.126931
0.132416
0.13944
0.148127
0.158169
0.16825
0.174951
0.173411
0.164788
0.153437
0.14299
0.13528
0.131059
0.130865
0.13596
0.149339
0.176019
0.219814
0.275709
0.326999
0.356438
0.361896
0.355653
0.344406
0.327794
0.306312
0.282818
0.260447
0.240696
0.222398
0.201974
0.17545
0.139045
0.0762133
0.105771
0.106572
0.107496
0.108603
0.10998
0.11176
0.114143
0.117442
0.122147
0.129003
0.138989
0.152665
0.16623
0.16334
0.149034
0.135232
0.125318
0.119178
0.116075
0.115695
0.118588
0.127075
0.147251
0.190559
0.265074
0.351996
0.396152
0.399998
0.397021
0.39238
0.374054
0.337816
0.294473
0.255263
0.224809
0.200866
0.178792
0.155049
0.124908
0.0606982
0.101489
0.101717
0.101973
0.102271
0.102632
0.103091
0.103696
0.104532
0.105752
0.107722
0.111555
0.121076
0.146902
0.135824
0.120093
0.111894
0.107692
0.10553
0.104508
0.104315
0.104995
0.107052
0.112213
0.127163
0.180109
0.367548
0.419659
0.421201
0.426438
0.427505
0.403502
0.362581
0.308422
0.250413
0.209088
0.182128
0.161375
0.144247
0.125184
0.0870257
)
;

boundaryField
{
    leftWall
    {
        type            kqRWallFunction;
        value           nonuniform 0();
    }
    rightWall
    {
        type            kqRWallFunction;
        value           nonuniform List<scalar> 
43
(
0.115571
0.111058
0.107772
0.10564
0.104554
0.104385
0.104994
0.106252
0.108059
0.110378
0.113283
0.11632
0.119387
0.122408
0.125317
0.128055
0.130572
0.132823
0.134774
0.136398
0.137691
0.138732
0.140229
0.14222
0.144003
0.145446
0.146503
0.147134
0.147294
0.146927
0.145954
0.144275
0.141765
0.138309
0.133806
0.128088
0.12073
0.112085
0.102207
0.0904475
0.0762133
0.0606982
0.0870257
)
;
    }
    lowerWall
    {
        type            kqRWallFunction;
        value           nonuniform 0();
    }
    atmosphere
    {
        type            inletOutlet;
        inletValue      uniform 0.1;
        value           nonuniform List<scalar> 
45
(
0.1
0.1
0.1
0.1
0.1
0.1
0.1
0.1
0.1
0.1
0.1
0.1
0.1
0.1
0.1
0.1
0.1
0.146902
0.1
0.1
0.1
0.1
0.1
0.1
0.1
0.1
0.1
0.1
0.1
0.1
0.367548
0.419659
0.421201
0.426438
0.427505
0.403502
0.362581
0.308422
0.250413
0.209088
0.182128
0.161375
0.144247
0.125184
0.1
)
;
    }
    defaultFaces
    {
        type            empty;
    }
    procBoundary3to1
    {
        type            processor;
        value           nonuniform List<scalar> 
45
(
0.423946
0.452641
0.478837
0.503074
0.525529
0.54685
0.565889
0.582657
0.598067
0.613063
0.627409
0.641624
0.655627
0.669669
0.684236
0.69961
0.715635
0.731773
0.747207
0.761059
0.771998
0.778719
0.780424
0.77728
0.769767
0.758537
0.744251
0.727607
0.709932
0.692719
0.677142
0.663627
0.651569
0.639859
0.627018
0.611422
0.591538
0.566189
0.535173
0.498294
0.455237
0.404881
0.344359
0.263961
0.121347
)
;
    }
    procBoundary3to2
    {
        type            processor;
        value           nonuniform List<scalar> 
43
(
0.351236
0.319685
0.296866
0.280663
0.269283
0.261351
0.255871
0.25214
0.249664
0.248093
0.247175
0.246713
0.246547
0.246535
0.246543
0.246441
0.246105
0.245413
0.244249
0.242511
0.240107
0.236965
0.233033
0.228282
0.222709
0.216337
0.20924
0.201531
0.193318
0.18473
0.175906
0.166994
0.158144
0.149504
0.141217
0.133414
0.126214
0.119721
0.114023
0.109194
0.105292
0.102364
0.100449
)
;
    }
}


// ************************************************************************* //
