/*--------------------------------*- C++ -*----------------------------------*\
| =========                 |                                                 |
| \\      /  F ield         | OpenFOAM: The Open Source CFD Toolbox           |
|  \\    /   O peration     | Version:  5.0                                   |
|   \\  /    A nd           | Web:      www.OpenFOAM.org                      |
|    \\/     M anipulation  |                                                 |
\*---------------------------------------------------------------------------*/
FoamFile
{
    version     2.0;
    format      ascii;
    class       volScalarField;
    location    "0.95";
    object      nut;
}
// * * * * * * * * * * * * * * * * * * * * * * * * * * * * * * * * * * * * * //

dimensions      [0 2 -1 0 0 0 0];

internalField   nonuniform List<scalar> 
1935
(
0.0081788
0.00847518
0.008818
0.00916228
0.00947189
0.00972686
0.00992235
0.0100635
0.0101603
0.0102238
0.0102644
0.0102903
0.0103082
0.0103226
0.0103365
0.0103515
0.0103677
0.0103846
0.0104009
0.0104146
0.0104236
0.0104256
0.0104182
0.0103995
0.0103675
0.0103209
0.0102587
0.0101796
0.0100836
0.00997156
0.00984518
0.00970721
0.00956155
0.00941336
0.00926911
0.0091365
0.00902406
0.00894029
0.00889207
0.00888224
0.00890661
0.00895143
0.00899335
0.00827923
0.00839136
0.00851457
0.0086467
0.00856816
0.008682
0.00881615
0.00896866
0.00890392
0.00901612
0.00915473
0.00931793
0.00924125
0.00934829
0.00948421
0.00964726
0.00954364
0.00964255
0.00976997
0.00992437
0.00979149
0.0098808
0.00999663
0.0101379
0.00998072
0.0100607
0.0101646
0.0102918
0.0101172
0.0101895
0.0102829
0.0103974
0.0102113
0.010278
0.0103633
0.0104675
0.010274
0.0103375
0.0104172
0.0105135
0.0103153
0.0103775
0.0104538
0.0105447
0.0103433
0.0104058
0.0104805
0.0105679
0.0103642
0.0104281
0.0105025
0.0105879
0.0103822
0.0104483
0.0105234
0.0106079
0.0104
0.0104689
0.0105454
0.0106299
0.0104191
0.010491
0.0105695
0.0106547
0.0104395
0.0105147
0.0105955
0.0106819
0.0104607
0.0105392
0.0106225
0.0107106
0.010481
0.0105629
0.010649
0.010739
0.0104986
0.0105838
0.0106726
0.0107648
0.0105111
0.0105994
0.0106909
0.0107852
0.010516
0.010607
0.0107008
0.0107971
0.0105108
0.0106038
0.0106994
0.0107973
0.0104931
0.0105871
0.0106837
0.0107824
0.0104608
0.0105546
0.0106509
0.0107491
0.0104121
0.0105039
0.0105983
0.0106944
0.0103457
0.0104334
0.0105236
0.0106156
0.0102602
0.0103416
0.0104252
0.0105101
0.0101549
0.0102269
0.0103008
0.0103756
0.0100302
0.0100895
0.01015
0.0102107
0.00988771
0.00993043
0.00997345
0.0100157
0.00972997
0.00975224
0.0097735
0.00979257
0.00956106
0.00955902
0.00955417
0.00954527
0.00938664
0.00935685
0.00932189
0.0092805
0.00921419
0.00915409
0.00908585
0.00900823
0.00905302
0.00896165
0.0088585
0.0087424
0.00891411
0.00879296
0.0086558
0.00850142
0.0088093
0.00866343
0.00849691
0.00830831
0.00874964
0.00858878
0.00840282
0.00818979
0.0087424
0.00858174
0.00839296
0.00817315
0.0087869
0.00864667
0.00847866
0.00827905
0.00887001
0.00877265
0.00865354
0.00850879
0.00896407
0.00892841
0.00888395
0.00882883
0.008798
0.00898559
0.00921695
0.00949517
0.00981459
0.0101744
0.0105689
0.0109902
0.0114277
0.0118697
0.0123039
0.0127187
0.0131014
0.013441
0.0137308
0.013968
0.0141521
0.0142826
0.0143598
0.0143823
0.0143514
0.0142712
0.0141448
0.0139749
0.0137629
0.01351
0.0132167
0.0128829
0.012505
0.0120758
0.0115835
0.0110125
0.0103406
0.00954187
0.00858396
0.00742508
0.0060124
0.00428488
0.0022071
0.000249883
0.00915108
0.00937468
0.00963629
0.00993338
0.0102623
0.0106204
0.0110016
0.0113983
0.0118012
0.0121999
0.0125848
0.0129469
0.0132762
0.0135636
0.0138054
0.0140009
0.014149
0.0142496
0.0143026
0.0143075
0.0142654
0.0141787
0.0140497
0.0138799
0.0136702
0.0134205
0.0131312
0.0128008
0.0124248
0.0119953
0.0114999
0.010921
0.0102384
0.00942723
0.00845615
0.00728658
0.0058721
0.00416181
0.00213321
0.000244978
0.00951684
0.00975796
0.0100309
0.0103301
0.0106525
0.0109948
0.0113515
0.011716
0.0120804
0.0124363
0.0127765
0.0130939
0.0133797
0.0136276
0.0138352
0.0140006
0.0141234
0.0142039
0.0142419
0.0142372
0.0141903
0.0141023
0.0139745
0.0138078
0.0136023
0.0133576
0.0130732
0.0127468
0.0123729
0.0119421
0.0114413
0.010854
0.0101602
0.00933555
0.00835055
0.00717009
0.00575363
0.00405884
0.0020729
0.000241374
0.00984753
0.0100886
0.0103568
0.0106463
0.0109518
0.0112717
0.0116011
0.011934
0.0122638
0.0125834
0.0128873
0.0131695
0.0134231
0.0136433
0.0138274
0.013973
0.0140801
0.0141491
0.0141796
0.0141715
0.0141248
0.0140398
0.0139168
0.013756
0.0135573
0.0133197
0.0130417
0.0127199
0.0123475
0.0119147
0.0114084
0.0108124
0.0101071
0.00926886
0.00827027
0.00707951
0.00566117
0.00397953
0.00202787
0.000239053
0.010115
0.0103441
0.0105975
0.01087
0.0111558
0.0114527
0.0117566
0.0120623
0.0123639
0.0126551
0.0129311
0.0131875
0.0134184
0.01362
0.0137887
0.0139227
0.0140217
0.0140858
0.0141147
0.0141081
0.0140656
0.013987
0.013872
0.0137201
0.0135306
0.0133019
0.0130316
0.012715
0.0123446
0.0119105
0.0113994
0.0107953
0.0100791
0.00922843
0.00821754
0.00701776
0.00559775
0.00392623
0.00199911
0.000237931
0.0103133
0.0105248
0.0107593
0.0110122
0.0112788
0.0115544
0.0118363
0.0121195
0.0123987
0.0126681
0.0129236
0.0131613
0.0133763
0.0135656
0.0137252
0.0138533
0.0139495
0.0140135
0.0140451
0.0140436
0.0140086
0.0139392
0.0138348
0.0136942
0.0135162
0.0132983
0.0130371
0.012727
0.0123601
0.011926
0.0114116
0.010801
0.0100757
0.00921447
0.0081934
0.00698632
0.00556474
0.00389966
0.00198666
0.000237873
0.0104506
0.0106435
0.0108586
0.0110921
0.0113398
0.0115975
0.0118606
0.0121252
0.0123861
0.0126385
0.0128786
0.0131024
0.0133061
0.013487
0.0136414
0.0137674
0.0138643
0.0139315
0.0139687
0.013975
0.0139497
0.0138917
0.0137999
0.0136728
0.0135081
0.0133027
0.0130523
0.0127505
0.012389
0.0119571
0.0114415
0.0108269
0.0100951
0.00922603
0.00819742
0.00698486
0.00556145
0.00389866
0.00198953
0.000238713
0.010541
0.0107165
0.0109135
0.0111289
0.011359
0.0115999
0.0118471
0.012096
0.0123417
0.01258
0.0128075
0.0130205
0.0132155
0.0133902
0.0135418
0.0136678
0.0137673
0.0138396
0.0138841
0.0138998
0.0138858
0.0138408
0.0137631
0.0136508
0.0135009
0.0133097
0.0130718
0.0127804
0.0124266
0.0119993
0.0114855
0.0108697
0.0101347
0.00926108
0.00822773
0.00701125
0.00558524
0.00392033
0.00200574
0.000240281
0.0105982
0.0107586
0.0109396
0.0111386
0.0113524
0.0115774
0.0118095
0.0120444
0.0122773
0.0125034
0.0127198
0.0129234
0.0131112
0.0132807
0.0134303
0.0135572
0.0136602
0.0137385
0.013791
0.013817
0.013815
0.0137837
0.0137211
0.0136246
0.0134907
0.0133149
0.0130913
0.0128123
0.0124685
0.0120487
0.0115397
0.0109263
0.0101915
0.00931662
0.00828112
0.00706183
0.00563192
0.00396036
0.00203237
0.000242429
0.010634
0.0107819
0.0109489
0.0111331
0.0113318
0.0115418
0.0117594
0.0119806
0.0122011
0.0124162
0.0126226
0.0128176
0.0129986
0.0131635
0.0133107
0.0134385
0.0135451
0.0136293
0.0136901
0.0137264
0.0137367
0.0137194
0.0136721
0.0135919
0.0134747
0.0133155
0.0131076
0.0128428
0.0125115
0.0121019
0.0116007
0.010993
0.0102618
0.00938882
0.00835343
0.00713204
0.00569651
0.0040136
0.00206536
0.000245041
0.0106574
0.010795
0.0109501
0.0111211
0.0113059
0.0115016
0.0117051
0.0119128
0.0121209
0.0123252
0.0125219
0.0127085
0.0128828
0.0130432
0.013188
0.0133157
0.0134249
0.0135144
0.013583
0.0136291
0.0136513
0.0136476
0.0136156
0.0135517
0.0134516
0.0133095
0.0131185
0.0128697
0.0125527
0.0121557
0.0116652
0.0110661
0.0103416
0.00947316
0.0084398
0.00721688
0.0057742
0.00407521
0.00209868
0.000248426
0.0106748
0.0108042
0.0109492
0.0111087
0.0112807
0.0114631
0.011653
0.0118473
0.0120428
0.0122359
0.012423
0.0126013
0.0127689
0.0129244
0.0130664
0.0131935
0.0133044
0.0133979
0.0134728
0.0135275
0.0135605
0.0135696
0.013552
0.0135041
0.0134208
0.0132963
0.0131228
0.0128913
0.0125907
0.012209
0.011732
0.0111446
0.0104296
0.00956818
0.00853847
0.00731439
0.00586334
0.00414531
0.00213615
0.000251909
0.0106907
0.0108137
0.0109504
0.0110997
0.0112604
0.0114303
0.0116073
0.0117888
0.0119718
0.0121533
0.0123304
0.0125002
0.012661
0.0128114
0.0129499
0.0130755
0.013187
0.0132832
0.0133629
0.0134248
0.0134671
0.0134877
0.0134834
0.0134505
0.0133838
0.0132769
0.0131216
0.0129082
0.0126256
0.0122609
0.0117997
0.0112261
0.0105228
0.00967013
0.00864522
0.00742033
0.00596028
0.00422158
0.00217698
0.000255361
0.0107081
0.0108262
0.0109559
0.0110967
0.0112472
0.011406
0.0115711
0.0117403
0.0119112
0.0120813
0.0122481
0.0124091
0.0125626
0.0127072
0.0128416
0.0129648
0.0130757
0.0131732
0.0132564
0.0133238
0.0133739
0.0134044
0.0134122
0.0133933
0.0133423
0.0132525
0.0131154
0.0129208
0.012657
0.0123104
0.0118662
0.0113081
0.0106179
0.00977517
0.00875592
0.0075306
0.00606146
0.0043014
0.00221994
0.000258708
0.0107285
0.0108429
0.0109672
0.0111008
0.0112426
0.0113915
0.0115457
0.0117037
0.0118632
0.0120223
0.0121789
0.0123308
0.0124766
0.0126148
0.0127443
0.012864
0.0129731
0.0130707
0.0131557
0.0132271
0.0132833
0.013322
0.0133403
0.0133341
0.0132978
0.0132244
0.013105
0.012929
0.012684
0.0123561
0.0119297
0.0113878
0.0107115
0.00987955
0.00886663
0.00764141
0.00616355
0.00438237
0.00226386
0.000261888
0.0107525
0.0108644
0.0109845
0.0111122
0.0112468
0.011387
0.0115318
0.0116796
0.0118287
0.0119775
0.0121242
0.0122671
0.0124048
0.012536
0.0126597
0.0127751
0.0128812
0.0129774
0.0130628
0.0131365
0.013197
0.0132423
0.0132693
0.0132741
0.013251
0.0131927
0.0130901
0.012932
0.0127056
0.0123962
0.0119876
0.0114622
0.0108004
0.00997967
0.00897367
0.00774925
0.00626354
0.00446229
0.0023077
0.000264847
0.0107797
0.0108901
0.0110072
0.0111303
0.0112589
0.0113921
0.0115287
0.0116676
0.0118074
0.0119467
0.0120841
0.0122182
0.0123477
0.0124716
0.0125889
0.0126989
0.0128009
0.0128944
0.0129787
0.0130529
0.0131159
0.0131658
0.0131997
0.0132137
0.013202
0.0131572
0.01307
0.0129287
0.01272
0.0124285
0.0120375
0.0115286
0.0108812
0.0100721
0.00907365
0.00785095
0.00635872
0.00453919
0.00235052
0.000267543
0.0108091
0.0109188
0.0110338
0.0111536
0.0112775
0.0114049
0.0115348
0.0116661
0.0117978
0.0119286
0.0120575
0.0121831
0.0123046
0.0124209
0.0125313
0.0126352
0.012732
0.0128215
0.012903
0.0129761
0.0130397
0.0130921
0.0131308
0.0131518
0.0131496
0.0131165
0.013043
0.0129171
0.0127249
0.0124505
0.0120765
0.0115837
0.0109508
0.0101537
0.00916342
0.0079436
0.00644663
0.00461129
0.00239148
0.000269939
0.0108386
0.0109484
0.0110622
0.0111797
0.0113003
0.0114232
0.0115476
0.0116726
0.0117973
0.0119207
0.0120418
0.0121596
0.0122732
0.0123818
0.0124849
0.012582
0.0126726
0.0127567
0.012834
0.0129041
0.0129663
0.0130193
0.0130605
0.0130864
0.0130915
0.0130682
0.0130066
0.0128945
0.0127175
0.0124592
0.0121015
0.0116244
0.011006
0.0102213
0.00924004
0.00802454
0.00652499
0.00467693
0.00242978
0.000272009
0.0108659
0.0109763
0.0110898
0.0112059
0.011324
0.0114435
0.0115636
0.0116835
0.0118024
0.0119193
0.0120334
0.0121438
0.0122498
0.0123508
0.0124462
0.0125357
0.0126192
0.0126967
0.0127682
0.0128335
0.0128923
0.0129436
0.0129853
0.0130139
0.0130241
0.0130085
0.0129571
0.0128574
0.0126944
0.0124512
0.0121092
0.0116476
0.0110438
0.0102719
0.00930077
0.00809124
0.00659163
0.00473446
0.00246461
0.000273733
0.010888
0.0109994
0.011113
0.0112284
0.0113449
0.0114619
0.0115786
0.0116943
0.0118082
0.0119194
0.0120271
0.0121306
0.0122292
0.0123223
0.0124096
0.0124909
0.0125663
0.0126358
0.0126999
0.0127587
0.0128122
0.0128598
0.0128997
0.012929
0.0129425
0.0129329
0.0128901
0.0128014
0.0126514
0.0124227
0.012096
0.0116499
0.0110611
0.0103028
0.00934295
0.00814125
0.0066443
0.00478202
0.00249492
0.00027511
0.0109016
0.011014
0.0111281
0.0112431
0.0113585
0.0114736
0.0115875
0.0116996
0.011809
0.011915
0.0120166
0.0121133
0.0122044
0.0122894
0.012368
0.0124402
0.0125063
0.0125665
0.0126216
0.0126721
0.0127184
0.0127603
0.0127967
0.0128248
0.01284
0.0128351
0.0127998
0.0127213
0.0125839
0.0123694
0.0120581
0.0116279
0.0110547
0.010311
0.00936399
0.0081721
0.00668053
0.00481709
0.0025188
0.000276206
0.0109031
0.0110164
0.0111307
0.0112454
0.0113597
0.0114729
0.0115843
0.0116929
0.0117979
0.0118986
0.0119941
0.0120837
0.0121668
0.0122429
0.0123119
0.0123739
0.0124293
0.0124788
0.0125232
0.0125637
0.0126011
0.0126357
0.012667
0.0126928
0.0127088
0.0127077
0.0126796
0.0126112
0.0124864
0.0122866
0.0119913
0.0115778
0.0110214
0.0102939
0.00936137
0.00818139
0.00669769
0.00483612
0.00253152
0.00027765
0.0108887
0.0110022
0.0111163
0.0112301
0.0113429
0.0114538
0.0115621
0.0116668
0.0117669
0.0118617
0.0119502
0.0120318
0.0121058
0.0121718
0.0122299
0.0122801
0.0123232
0.0123602
0.0123924
0.0124213
0.0124483
0.0124745
0.0124999
0.0125229
0.0125393
0.0125424
0.0125218
0.0124642
0.012353
0.0121692
0.0118914
0.0114965
0.0109588
0.0102495
0.00933381
0.00816831
0.00669538
0.00483907
0.00253301
0.000279672
0.0108548
0.0109673
0.0110799
0.0111918
0.0113019
0.0114095
0.0115135
0.0116129
0.0117068
0.0117942
0.0118742
0.011946
0.0120091
0.0120631
0.0121081
0.0121446
0.0121735
0.0121962
0.0122144
0.0122303
0.0122462
0.0122635
0.012283
0.0123036
0.0123214
0.0123298
0.0123184
0.0122738
0.0121786
0.0120133
0.0117556
0.0113817
0.0108653
0.0101768
0.00928072
0.00813279
0.00667432
0.00482799
0.00252698
0.000281499
0.0107978
0.0109075
0.0110168
0.0111248
0.0112304
0.0113325
0.0114301
0.0115222
0.0116074
0.011685
0.0117538
0.0118132
0.0118626
0.0119018
0.0119311
0.0119513
0.0119636
0.0119701
0.0119732
0.0119756
0.0119801
0.0119889
0.0120035
0.0120232
0.0120447
0.0120611
0.0120622
0.0120339
0.0119583
0.0118149
0.0115808
0.0112312
0.0107392
0.0100745
0.00920132
0.00807453
0.00663472
0.00480367
0.00251445
0.000282993
0.0107142
0.0108185
0.0109219
0.0110233
0.0111214
0.0112152
0.0113033
0.0113845
0.0114577
0.0115218
0.0115758
0.0116189
0.0116509
0.0116718
0.0116823
0.0116837
0.0116776
0.0116667
0.0116539
0.0116425
0.0116361
0.0116376
0.0116492
0.0116709
0.0116995
0.0117283
0.0117464
0.0117391
0.0116878
0.0115708
0.0113643
0.0110429
0.0105789
0.00994167
0.00909483
0.00799301
0.00657634
0.00476611
0.00249557
0.000284112
0.010601
0.0106966
0.0107905
0.0108815
0.0109683
0.0110495
0.0111237
0.0111897
0.0112461
0.011292
0.0113264
0.0113491
0.0113598
0.0113591
0.011348
0.0113282
0.0113021
0.0112727
0.0112437
0.0112191
0.0112031
0.0111996
0.0112112
0.0112386
0.0112791
0.0113256
0.0113663
0.0113858
0.0113642
0.0112788
0.0111048
0.0108157
0.0103836
0.00977729
0.00896042
0.0078875
0.00649858
0.00471492
0.00247017
0.000284821
0.0104551
0.0105379
0.0106179
0.0106939
0.0107643
0.0108277
0.0108827
0.010928
0.0109624
0.010985
0.0109952
0.0109929
0.0109785
0.0109528
0.0109175
0.0108749
0.0108278
0.0107799
0.0107355
0.0106993
0.0106762
0.0106706
0.0106859
0.0107236
0.0107813
0.0108516
0.0109213
0.0109736
0.0109876
0.010939
0.0108019
0.0105493
0.0101526
0.0095807
0.00879725
0.00775706
0.00640053
0.00464934
0.00243784
0.000285082
0.0102745
0.0103395
0.0104004
0.0104559
0.0105043
0.0105441
0.0105739
0.0105927
0.0105994
0.0105935
0.0105748
0.0105436
0.0105008
0.0104479
0.0103871
0.0103212
0.0102537
0.0101888
0.0101312
0.0100861
0.0100591
0.0100552
0.0100785
0.010131
0.0102111
0.0103112
0.0104157
0.0105066
0.0105611
0.0105539
0.0104577
0.0102448
0.00988639
0.00935157
0.00860445
0.00760047
0.00628084
0.0045682
0.00239798
0.000284839
0.0100588
0.0101004
0.0101364
0.0101652
0.0101852
0.0101951
0.0101937
0.0101801
0.0101539
0.0101149
0.0100635
0.0100008
0.00992819
0.00984778
0.00976229
0.00967499
0.00958974
0.00951099
0.00944379
0.00939385
0.00936709
0.00936897
0.00940426
0.00947586
0.00958276
0.00971716
0.00986114
0.00999454
0.010093
0.0101295
0.0100761
0.00990452
0.00958595
0.00908976
0.00838097
0.00741608
0.00613762
0.00446983
0.00234963
0.000284015
0.00980967
0.00982185
0.00982649
0.00982205
0.00980719
0.00978086
0.00974234
0.00969136
0.00962808
0.00955314
0.00946769
0.00937334
0.0092722
0.00916684
0.00906031
0.00895603
0.00885788
0.00877031
0.00869851
0.00864848
0.00862656
0.0086384
0.00868938
0.0087834
0.00891977
0.00909014
0.00927665
0.00945417
0.00959681
0.00967651
0.00966471
0.00953312
0.00925326
0.00879534
0.00812547
0.00720165
0.00596828
0.0043519
0.00229148
0.000282501
0.00953086
0.0095074
0.00947424
0.00943012
0.00937418
0.00930601
0.0092257
0.00913388
0.0090317
0.00892068
0.00880276
0.00868012
0.00855523
0.00843086
0.00830989
0.00819543
0.00809098
0.00800088
0.00793044
0.00788559
0.00787274
0.00789827
0.00796813
0.00808669
0.008254
0.00846124
0.00868926
0.00890906
0.00909279
0.00921155
0.00923629
0.00913904
0.00889295
0.00847004
0.00783762
0.00695539
0.0057703
0.00421194
0.00222206
0.000280152
0.00922934
0.0091643
0.00908723
0.0089975
0.00889512
0.00878077
0.00865583
0.00852224
0.00838234
0.00823864
0.00809365
0.0079498
0.00780946
0.00767485
0.00754824
0.00743196
0.00732901
0.0072432
0.00717972
0.00714454
0.00714403
0.00718521
0.00727561
0.00742054
0.00761962
0.00786222
0.00812758
0.00838471
0.00860302
0.00875299
0.00880587
0.00873473
0.00851449
0.00811963
0.00752006
0.00667788
0.00554298
0.00404875
0.00214041
0.000276817
0.00891586
0.00880408
0.00867785
0.0085376
0.00838474
0.00822165
0.00805153
0.00787808
0.00770499
0.0075356
0.00737252
0.00721772
0.00707257
0.00693832
0.006816
0.00670675
0.00661264
0.00653699
0.00648462
0.00646166
0.00647469
0.00653165
0.00664275
0.00681399
0.00704345
0.00731855
0.00761587
0.00790282
0.00814663
0.00831728
0.00838736
0.00833154
0.00812688
0.00775091
0.00717752
0.0063721
0.00528795
0.0038629
0.00204652
0.000272353
0.00860584
0.00844363
0.00826438
0.00807008
0.0078642
0.00765153
0.00743777
0.00722878
0.00702969
0.00684421
0.00667427
0.00652024
0.0063819
0.00625888
0.00615018
0.0060555
0.00597612
0.00591513
0.00587696
0.00586735
0.00589321
0.00596355
0.00609021
0.00628175
0.00653709
0.00684141
0.00716614
0.00747557
0.00773527
0.00791554
0.00799076
0.00793772
0.00773628
0.00736819
0.00681282
0.00603978
0.00500576
0.00365416
0.00194003
0.000266554
0.00832017
0.0081062
0.00787211
0.0076219
0.00736174
0.00709964
0.00684458
0.00660508
0.00638774
0.00619611
0.00603042
0.00588833
0.00576747
0.00566488
0.0055773
0.00550371
0.00544523
0.00540419
0.00538349
0.00538686
0.00542016
0.00549345
0.00562221
0.00582143
0.00609468
0.00642475
0.00677321
0.0070994
0.00736881
0.00755106
0.0076204
0.00755652
0.00734422
0.00697125
0.00642329
0.00567554
0.0046893
0.0034148
0.00181558
0.000258908
0.00808581
0.0078226
0.00753494
0.007229
0.00691411
0.00660226
0.00630656
0.00603902
0.0058081
0.00561698
0.00546351
0.00534175
0.00524604
0.00517105
0.0051122
0.00506849
0.00504088
0.00502923
0.00503102
0.00504355
0.00506908
0.00512175
0.00522883
0.00541861
0.00570014
0.00605118
0.00641836
0.00675891
0.00703763
0.00721911
0.00727413
0.00718507
0.00694495
0.00655059
0.00599576
0.0052616
0.00431343
0.00310983
0.0016261
0.000249505
0.0079357
0.00763211
0.00729756
0.00693973
0.00657081
0.00620697
0.00586639
0.00556598
0.00531757
0.0051252
0.00498487
0.00488683
0.00482125
0.00478083
0.0047611
0.00476275
0.00478532
0.00482219
0.00485603
0.00486842
0.00485501
0.00484356
0.00489184
0.00505228
0.00533544
0.00570431
0.00608656
0.00644212
0.00673271
0.00691333
0.0069458
0.00681313
0.00652173
0.00608252
0.00550057
0.00476551
0.00384904
0.002718
0.00138458
0.000238372
0.00790649
0.00758204
0.00721773
0.00682061
0.00640358
0.00598547
0.00558939
0.00523887
0.00495266
0.00474016
0.00459976
0.00452037
0.0044872
0.0044895
0.00452693
0.00460345
0.00471339
0.00483353
0.00491733
0.00491568
0.00481328
0.00466595
0.00459321
0.00469407
0.00497764
0.00537332
0.00577896
0.00615728
0.00646434
0.00664122
0.00663552
0.00643954
0.00607188
0.00556061
0.00492865
0.00417793
0.00328967
0.0022512
0.00112842
0.000224425
0.00803139
0.00772225
0.00736472
0.0069617
0.00652188
0.0060611
0.00560239
0.0051739
0.00480454
0.0045183
0.00432979
0.00424067
0.00423521
0.00429089
0.00442045
0.00463038
0.00489561
0.00515477
0.00531613
0.00529039
0.00504385
0.00465835
0.00434668
0.00431172
0.00458379
0.00503348
0.00550395
0.00593088
0.00626864
0.0064322
0.00637251
0.00608406
0.00560172
0.00498127
0.0042737
0.00350026
0.00265626
0.00175824
0.000898536
0.000206294
0.00832451
0.00808732
0.0078026
0.00746684
0.00707939
0.0066438
0.00616899
0.00567001
0.00516934
0.00470072
0.00431706
0.00409054
0.00406348
0.00417923
0.00450124
0.00498877
0.0055239
0.00597307
0.00622276
0.00618363
0.00580143
0.00510783
0.00434105
0.00391579
0.00406879
0.00466209
0.00527632
0.00578859
0.00617279
0.0063465
0.00623106
0.00580263
0.00514108
0.00436059
0.00355779
0.00277577
0.00202086
0.00132207
0.000725607
0.000184554
0.00875699
0.00866187
0.00854357
0.00839769
0.00821927
0.00800238
0.00773889
0.00741549
0.00700767
0.00647071
0.00574003
0.0048163
0.0040446
0.00432888
0.00543835
0.00649364
0.00721765
0.00764669
0.00784311
0.00782472
0.00755498
0.0069364
0.00584479
0.00435263
0.003292
0.00421448
0.00508199
0.00569656
0.00612662
0.00629927
0.00609752
0.00554762
0.00474088
0.00380048
0.00291658
0.00216518
0.00152956
0.00101167
0.000597327
0.000221529
)
;

boundaryField
{
    leftWall
    {
        type            nutkWallFunction;
        Cmu             0.09;
        kappa           0.41;
        E               9.8;
        value           nonuniform 0();
    }
    rightWall
    {
        type            nutkWallFunction;
        Cmu             0.09;
        kappa           0.41;
        E               9.8;
        value           nonuniform List<scalar> 
43
(
2.76582e-05
2.69591e-05
2.64399e-05
2.6098e-05
2.59224e-05
2.5895e-05
2.59938e-05
2.61965e-05
2.64854e-05
2.68524e-05
2.73057e-05
2.77727e-05
2.82374e-05
2.86886e-05
2.91171e-05
2.95153e-05
2.98771e-05
3.01974e-05
3.04725e-05
3.06998e-05
3.08796e-05
3.10237e-05
3.12299e-05
3.15022e-05
3.17442e-05
3.19389e-05
3.20807e-05
3.21651e-05
3.21866e-05
3.21374e-05
3.20072e-05
3.1781e-05
3.14402e-05
3.09652e-05
3.03363e-05
2.95201e-05
2.84388e-05
2.71196e-05
2.55396e-05
2.35411e-05
2.09131e-05
1.77718e-05
2.29402e-05
)
;
    }
    lowerWall
    {
        type            nutkWallFunction;
        Cmu             0.09;
        kappa           0.41;
        E               9.8;
        value           nonuniform 0();
    }
    atmosphere
    {
        type            calculated;
        value           nonuniform List<scalar> 
45
(
0.009
0.009
0.009
0.009
0.009
0.009
0.009
0.009
0.009
0.009
0.009
0.009
0.009
0.009
0.009
0.009
0.009
0.0040446
0.009
0.009
0.009
0.009
0.009
0.009
0.009
0.009
0.009
0.009
0.009
0.009
0.00421448
0.00508199
0.00569656
0.00612662
0.00629927
0.00609752
0.00554762
0.00474088
0.00380048
0.00291658
0.00216518
0.00152956
0.00101167
0.000597327
0.009
)
;
    }
    defaultFaces
    {
        type            empty;
    }
    procBoundary3to1
    {
        type            processor;
        value           nonuniform List<scalar> 
45
(
0.00796642
0.00807309
0.00817883
0.00828467
0.00838995
0.00850167
0.00864379
0.00883305
0.00907595
0.00937002
0.00971304
0.0101006
0.0105261
0.010981
0.0114549
0.0119343
0.012404
0.0128477
0.0132512
0.0136032
0.0138963
0.0141275
0.0142967
0.0144067
0.0144558
0.0144452
0.0143788
0.01426
0.014093
0.0138808
0.0136258
0.013329
0.0129917
0.0126114
0.0121815
0.0116912
0.0111254
0.0104631
0.00967606
0.00873023
0.0075811
0.00616967
0.00442375
0.00229232
0.000256037
)
;
    }
    procBoundary3to2
    {
        type            processor;
        value           nonuniform List<scalar> 
43
(
0.00809781
0.00841034
0.00876453
0.00911628
0.00943097
0.00968954
0.00988736
0.0100295
0.0101258
0.0101875
0.010225
0.010247
0.0102603
0.0102698
0.0102786
0.0102884
0.0102996
0.0103116
0.0103231
0.0103325
0.0103376
0.0103364
0.0103268
0.010307
0.0102755
0.0102311
0.010173
0.0101005
0.0100139
0.00991435
0.00980372
0.00968477
0.00956113
0.0094374
0.00931899
0.00921195
0.00912246
0.00905598
0.00901589
0.00900162
0.00900678
0.00901815
0.00901688
)
;
    }
}


// ************************************************************************* //
