/*--------------------------------*- C++ -*----------------------------------*\
| =========                 |                                                 |
| \\      /  F ield         | OpenFOAM: The Open Source CFD Toolbox           |
|  \\    /   O peration     | Version:  5.0                                   |
|   \\  /    A nd           | Web:      www.OpenFOAM.org                      |
|    \\/     M anipulation  |                                                 |
\*---------------------------------------------------------------------------*/
FoamFile
{
    version     2.0;
    format      ascii;
    class       volScalarField;
    location    "0.95";
    object      p;
}
// * * * * * * * * * * * * * * * * * * * * * * * * * * * * * * * * * * * * * //

dimensions      [1 -1 -2 0 0 0 0];

internalField   nonuniform List<scalar> 
1935
(
-2.39363
-2.45163
-2.50996
-2.56903
-2.62888
-2.68939
-2.75075
-2.81325
-2.87709
-2.94243
-3.00934
-3.07782
-3.14786
-3.21936
-3.29224
-3.36638
-3.44167
-3.51801
-3.59528
-3.67338
-3.75225
-3.83183
-3.9121
-3.99307
-4.07475
-4.15719
-4.2404
-4.32441
-4.40924
-4.49491
-4.58139
-4.66871
-4.75684
-4.8458
-4.93558
-5.02618
-5.11761
-5.20989
-5.30303
-5.39703
-5.49188
-5.58756
-5.68442
-2.40073
-2.40706
-2.41426
-2.41876
-2.45672
-2.46041
-2.46328
-2.46442
-2.51302
-2.51487
-2.51572
-2.51522
-2.57051
-2.57093
-2.57055
-2.56933
-2.62924
-2.6287
-2.62757
-2.62599
-2.68911
-2.6881
-2.68669
-2.68503
-2.75023
-2.74918
-2.74785
-2.74635
-2.81278
-2.81196
-2.81093
-2.8097
-2.87684
-2.87635
-2.87565
-2.8747
-2.94238
-2.94219
-2.94175
-2.94103
-3.00941
-3.00938
-3.00911
-3.00857
-3.07792
-3.07795
-3.07777
-3.07736
-3.14792
-3.14795
-3.14781
-3.14751
-3.21936
-3.21936
-3.21925
-3.21903
-3.29216
-3.29211
-3.292
-3.29181
-3.36622
-3.36609
-3.36592
-3.3657
-3.4414
-3.44115
-3.44086
-3.44055
-3.51759
-3.51718
-3.51673
-3.51626
-3.5947
-3.59409
-3.59344
-3.59277
-3.67264
-3.67183
-3.67098
-3.67009
-3.75135
-3.75036
-3.74932
-3.74824
-3.8308
-3.82967
-3.82846
-3.82723
-3.91098
-3.90974
-3.90842
-3.90707
-3.99189
-3.99059
-3.98921
-3.9878
-4.07356
-4.07224
-4.07085
-4.06942
-4.15601
-4.15472
-4.15335
-4.15195
-4.23927
-4.23804
-4.23673
-4.23539
-4.32336
-4.32222
-4.321
-4.31975
-4.40828
-4.40725
-4.40616
-4.40503
-4.49406
-4.49315
-4.49219
-4.49119
-4.58066
-4.57989
-4.57908
-4.57824
-4.6681
-4.66747
-4.66681
-4.66614
-4.75636
-4.75587
-4.75537
-4.75487
-4.84543
-4.84508
-4.84473
-4.8444
-4.93532
-4.93509
-4.93489
-4.93472
-5.02602
-5.0259
-5.02583
-5.02581
-5.11754
-5.11751
-5.11755
-5.11765
-5.20988
-5.20993
-5.21005
-5.21025
-5.30306
-5.30316
-5.30332
-5.30358
-5.39708
-5.39719
-5.39737
-5.39764
-5.49193
-5.49203
-5.49219
-5.49242
-5.58759
-5.58766
-5.58776
-5.58791
-5.68444
-5.68447
-5.68452
-5.68458
-2.41534
-2.41137
-2.40593
-2.39812
-2.38327
-2.38265
-2.37497
-2.37496
-2.38721
-2.40448
-2.43452
-2.46733
-2.47455
-2.4647
-2.45305
-2.44538
-2.44145
-2.44355
-2.44981
-2.44307
-2.4239
-2.39895
-2.36684
-2.32885
-2.28638
-2.24194
-2.19913
-2.15867
-2.11972
-2.08402
-2.05299
-2.02703
-2.00491
-1.98365
-1.96325
-1.94774
-1.93978
-1.93723
-1.94039
-1.94679
-2.46307
-2.46095
-2.45766
-2.45287
-2.44626
-2.44376
-2.43972
-2.43823
-2.443
-2.46225
-2.49141
-2.5049
-2.49867
-2.49007
-2.48617
-2.48251
-2.47983
-2.47905
-2.47794
-2.4691
-2.45324
-2.43323
-2.40696
-2.37437
-2.3379
-2.3006
-2.26527
-2.23227
-2.19989
-2.16967
-2.14344
-2.11726
-2.09155
-2.06789
-2.04847
-2.03598
-2.02908
-2.02738
-2.03132
-2.03812
-2.51341
-2.51109
-2.50819
-2.50449
-2.50022
-2.4974
-2.49467
-2.49312
-2.49812
-2.5185
-2.54052
-2.5398
-2.53088
-2.52911
-2.5277
-2.52467
-2.52139
-2.51818
-2.51353
-2.50417
-2.48988
-2.47294
-2.45158
-2.42455
-2.39496
-2.36564
-2.33651
-2.30905
-2.28159
-2.25295
-2.22509
-2.19835
-2.17282
-2.1508
-2.13527
-2.12459
-2.11828
-2.11698
-2.12115
-2.12778
-2.5675
-2.56531
-2.56267
-2.55955
-2.55625
-2.55369
-2.55151
-2.55039
-2.55717
-2.57515
-2.58636
-2.57993
-2.5719
-2.5722
-2.57201
-2.56988
-2.56679
-2.56286
-2.55717
-2.54809
-2.53493
-2.51863
-2.50177
-2.48188
-2.45927
-2.43403
-2.40831
-2.38257
-2.35577
-2.32821
-2.30118
-2.27625
-2.25459
-2.23699
-2.22321
-2.21317
-2.20717
-2.20592
-2.20982
-2.21578
-2.62415
-2.62211
-2.61969
-2.61696
-2.6142
-2.61193
-2.60997
-2.609
-2.6166
-2.63315
-2.63716
-2.62695
-2.61953
-2.62067
-2.62104
-2.61952
-2.61681
-2.61293
-2.60728
-2.599
-2.58759
-2.57323
-2.55788
-2.54214
-2.52351
-2.50187
-2.47853
-2.45304
-2.42749
-2.40292
-2.37998
-2.35901
-2.34029
-2.32423
-2.31117
-2.3015
-2.29557
-2.29402
-2.2972
-2.30204
-2.68325
-2.6813
-2.67902
-2.67652
-2.67407
-2.67192
-2.6699
-2.66874
-2.67652
-2.69198
-2.69275
-2.68015
-2.67322
-2.67466
-2.67517
-2.67401
-2.67166
-2.66807
-2.66285
-2.65552
-2.64584
-2.63391
-2.62044
-2.60547
-2.5883
-2.56893
-2.54816
-2.52671
-2.50479
-2.48329
-2.46279
-2.44367
-2.42637
-2.4113
-2.39883
-2.38936
-2.3832
-2.381
-2.38308
-2.38642
-2.74471
-2.74287
-2.74073
-2.73842
-2.73615
-2.73405
-2.73186
-2.73079
-2.73838
-2.75173
-2.75175
-2.7381
-2.73204
-2.73339
-2.73395
-2.73301
-2.73096
-2.72776
-2.72309
-2.71667
-2.70834
-2.69815
-2.68632
-2.67281
-2.65743
-2.64038
-2.62213
-2.60312
-2.58373
-2.56449
-2.54588
-2.52829
-2.51214
-2.49785
-2.48581
-2.47632
-2.46971
-2.46657
-2.46719
-2.46876
-2.80827
-2.80659
-2.80464
-2.80255
-2.80054
-2.79864
-2.79662
-2.79619
-2.80319
-2.8139
-2.8132
-2.80062
-2.79498
-2.79619
-2.79678
-2.79601
-2.79419
-2.79135
-2.78725
-2.78164
-2.77439
-2.76549
-2.75501
-2.74296
-2.72929
-2.71416
-2.69789
-2.68083
-2.66334
-2.64587
-2.62882
-2.61254
-2.59734
-2.58361
-2.57175
-2.56198
-2.55472
-2.55039
-2.54924
-2.54888
-2.8735
-2.87204
-2.87036
-2.86861
-2.867
-2.8656
-2.86428
-2.86411
-2.87041
-2.87845
-2.87777
-2.8667
-2.86132
-2.86231
-2.86302
-2.86241
-2.86077
-2.85821
-2.85456
-2.84963
-2.84324
-2.83537
-2.82602
-2.81519
-2.80292
-2.78933
-2.77466
-2.75919
-2.74323
-2.72715
-2.71129
-2.69598
-2.68152
-2.66816
-2.65624
-2.64604
-2.63789
-2.63213
-2.62899
-2.62654
-2.94006
-2.93887
-2.93752
-2.93618
-2.93505
-2.93424
-2.93367
-2.93374
-2.93873
-2.94696
-2.94613
-2.93779
-2.93187
-2.93161
-2.93206
-2.93147
-2.92998
-2.92762
-2.9243
-2.91985
-2.91413
-2.90706
-2.89861
-2.88879
-2.87764
-2.86528
-2.85188
-2.83767
-2.82293
-2.80793
-2.79298
-2.77835
-2.76431
-2.75111
-2.73898
-2.72818
-2.71895
-2.71157
-2.70634
-2.70142
-3.00782
-3.0069
-3.00591
-3.00501
-3.00437
-3.00415
-3.00441
-3.00538
-3.00896
-3.01642
-3.01835
-3.01259
-3.00634
-3.0041
-3.00349
-3.0025
-3.00097
-2.99874
-2.99564
-2.99155
-2.98631
-2.97984
-2.9721
-2.96308
-2.95283
-2.94143
-2.92903
-2.91582
-2.90201
-2.88784
-2.87356
-2.8594
-2.84558
-2.83232
-2.81981
-2.80823
-2.79775
-2.78846
-2.78056
-2.77379
-3.07681
-3.07615
-3.0755
-3.07498
-3.07475
-3.07496
-3.0757
-3.07718
-3.08011
-3.08488
-3.08779
-3.08503
-3.08033
-3.07759
-3.07614
-3.07478
-3.07304
-3.0708
-3.06787
-3.06404
-3.05916
-3.05315
-3.04595
-3.03756
-3.02801
-3.01736
-3.00574
-2.99329
-2.98019
-2.96663
-2.95282
-2.93894
-2.92517
-2.91169
-2.89864
-2.88614
-2.87427
-2.86295
-2.85231
-2.84317
-3.14712
-3.14669
-3.1463
-3.14608
-3.14612
-3.14654
-3.1474
-3.1488
-3.15093
-3.15373
-3.15557
-3.15448
-3.15211
-3.15022
-3.14885
-3.14744
-3.14565
-3.1434
-3.14053
-3.13687
-3.13224
-3.12657
-3.11979
-3.11189
-3.10288
-3.09281
-3.08178
-3.0699
-3.05732
-3.04419
-3.03066
-3.0169
-3.00304
-2.9892
-2.97548
-2.96196
-2.94859
-2.93512
-2.92162
-2.90987
-3.21876
-3.21849
-3.21829
-3.21823
-3.21841
-3.21888
-3.21967
-3.2208
-3.22225
-3.22383
-3.22484
-3.22454
-3.22347
-3.2223
-3.22119
-3.21996
-3.21833
-3.21616
-3.21333
-3.20975
-3.2053
-3.19987
-3.19341
-3.18588
-3.17728
-3.16765
-3.15705
-3.14558
-3.13336
-3.12049
-3.10711
-3.09333
-3.07925
-3.06495
-3.05048
-3.03584
-3.0209
-3.00519
-2.98873
-2.97427
-3.29161
-3.29142
-3.2913
-3.2913
-3.29149
-3.29189
-3.29252
-3.29335
-3.29433
-3.29527
-3.29587
-3.29583
-3.2953
-3.29452
-3.29358
-3.29241
-3.29087
-3.28878
-3.28601
-3.28252
-3.27821
-3.27298
-3.26676
-3.2595
-3.2512
-3.24187
-3.23158
-3.22039
-3.20839
-3.19566
-3.18231
-3.16841
-3.15402
-3.13919
-3.12389
-3.10809
-3.09152
-3.07352
-3.05403
-3.03684
-3.36548
-3.36529
-3.36515
-3.3651
-3.36519
-3.36544
-3.36585
-3.36639
-3.36699
-3.36755
-3.36789
-3.36788
-3.36755
-3.36698
-3.36615
-3.36501
-3.36346
-3.36138
-3.35866
-3.35523
-3.35101
-3.34594
-3.3399
-3.33284
-3.32474
-3.31562
-3.30553
-3.29451
-3.28263
-3.26995
-3.25654
-3.24244
-3.22769
-3.21226
-3.19611
-3.17911
-3.16091
-3.14059
-3.11806
-3.09815
-3.44024
-3.43995
-3.43969
-3.43951
-3.43943
-3.43947
-3.43962
-3.43987
-3.44016
-3.44042
-3.44055
-3.44048
-3.44021
-3.43971
-3.43894
-3.43782
-3.43628
-3.43423
-3.43154
-3.42813
-3.42396
-3.41895
-3.41301
-3.40608
-3.39811
-3.38912
-3.37915
-3.36822
-3.35639
-3.34369
-3.33017
-3.31583
-3.30067
-3.28463
-3.26761
-3.24942
-3.2296
-3.20699
-3.18144
-3.15887
-3.51578
-3.51532
-3.5149
-3.51452
-3.51422
-3.51401
-3.5139
-3.51387
-3.51388
-3.51389
-3.51384
-3.51365
-3.51332
-3.51282
-3.51206
-3.51096
-3.50944
-3.50742
-3.50476
-3.5014
-3.49726
-3.49228
-3.48638
-3.4795
-3.4716
-3.46269
-3.45279
-3.44191
-3.43009
-3.41734
-3.40367
-3.38906
-3.37349
-3.35683
-3.33895
-3.3196
-3.29821
-3.27338
-3.24488
-3.21976
-3.59209
-3.59143
-3.59079
-3.59019
-3.58965
-3.5892
-3.58883
-3.58854
-3.5883
-3.58809
-3.58785
-3.58754
-3.58711
-3.58653
-3.58572
-3.58462
-3.58311
-3.5811
-3.57848
-3.57517
-3.57108
-3.56613
-3.56025
-3.5534
-3.54555
-3.5367
-3.52685
-3.51601
-3.50418
-3.49137
-3.47756
-3.46269
-3.44671
-3.42946
-3.41076
-3.39031
-3.36742
-3.34046
-3.30916
-3.28161
-3.6692
-3.66832
-3.66747
-3.66664
-3.66588
-3.66519
-3.66458
-3.66405
-3.66359
-3.66316
-3.66275
-3.6623
-3.66176
-3.66109
-3.66021
-3.65905
-3.65751
-3.6555
-3.65292
-3.64965
-3.64561
-3.6407
-3.63487
-3.62809
-3.62033
-3.61156
-3.60178
-3.59099
-3.57918
-3.56633
-3.5524
-3.53731
-3.52095
-3.50316
-3.48369
-3.46222
-3.43794
-3.409
-3.37506
-3.34528
-3.74715
-3.74607
-3.74502
-3.74399
-3.74302
-3.74211
-3.74129
-3.74055
-3.73988
-3.73927
-3.73868
-3.73808
-3.73742
-3.73665
-3.7357
-3.73448
-3.73292
-3.73089
-3.72832
-3.7251
-3.72112
-3.71631
-3.7106
-3.70394
-3.6963
-3.68767
-3.67802
-3.66734
-3.6556
-3.64277
-3.62877
-3.61351
-3.59684
-3.57858
-3.55844
-3.53604
-3.51051
-3.47975
-3.4434
-3.41163
-3.82597
-3.82473
-3.82351
-3.82231
-3.82116
-3.82008
-3.81907
-3.81814
-3.81729
-3.8165
-3.81575
-3.815
-3.81422
-3.81335
-3.81232
-3.81106
-3.80947
-3.80747
-3.80495
-3.8018
-3.79794
-3.79328
-3.78774
-3.78128
-3.77386
-3.76544
-3.75601
-3.74553
-3.73395
-3.72122
-3.70724
-3.6919
-3.67502
-3.65638
-3.63568
-3.6125
-3.58585
-3.55347
-3.51499
-3.48149
-3.9057
-3.90434
-3.90299
-3.90166
-3.90037
-3.89914
-3.89798
-3.89689
-3.89588
-3.89493
-3.89402
-3.89314
-3.89223
-3.89126
-3.89017
-3.88888
-3.88731
-3.88536
-3.88294
-3.87994
-3.87627
-3.87184
-3.86657
-3.86041
-3.85331
-3.84524
-3.83616
-3.826
-3.81472
-3.80221
-3.78838
-3.77307
-3.7561
-3.73721
-3.71609
-3.69227
-3.66469
-3.63093
-3.59064
-3.55561
-3.98636
-3.98492
-3.98349
-3.98207
-3.98068
-3.97934
-3.97805
-3.97683
-3.97568
-3.97458
-3.97354
-3.97252
-3.97151
-3.97046
-3.96932
-3.96803
-3.96651
-3.96467
-3.96241
-3.95963
-3.95625
-3.95215
-3.94726
-3.94154
-3.93492
-3.92737
-3.91881
-3.90917
-3.89834
-3.88622
-3.87268
-3.85755
-3.84064
-3.82166
-3.80027
-3.77598
-3.74768
-3.71284
-3.67112
-3.63471
-4.06795
-4.06648
-4.06501
-4.06354
-4.06209
-4.06067
-4.0593
-4.05797
-4.0567
-4.05548
-4.05431
-4.05318
-4.05208
-4.05096
-4.0498
-4.04854
-4.04711
-4.04543
-4.04341
-4.04095
-4.03794
-4.0343
-4.02994
-4.0248
-4.01886
-4.01205
-4.00425
-3.99535
-3.9852
-3.97367
-3.9606
-3.94583
-3.92913
-3.91023
-3.88876
-3.8642
-3.83539
-3.79976
-3.75698
-3.71945
-4.1505
-4.14904
-4.14757
-4.14608
-4.14461
-4.14315
-4.14171
-4.1403
-4.13894
-4.13761
-4.13634
-4.13511
-4.13392
-4.13276
-4.1316
-4.13039
-4.12909
-4.12763
-4.12591
-4.12386
-4.12135
-4.11829
-4.11458
-4.11022
-4.10518
-4.09938
-4.09265
-4.08479
-4.0756
-4.06489
-4.05251
-4.03828
-4.02199
-4.00336
-3.98201
-3.95739
-3.92832
-3.89222
-3.84879
-3.81044
-4.234
-4.23258
-4.23115
-4.2297
-4.22823
-4.22676
-4.22528
-4.22382
-4.22238
-4.22097
-4.21959
-4.21827
-4.21701
-4.2158
-4.21465
-4.21352
-4.21239
-4.21119
-4.20986
-4.20831
-4.20642
-4.20404
-4.20111
-4.19766
-4.19377
-4.18935
-4.18409
-4.17767
-4.16977
-4.16017
-4.1487
-4.13522
-4.11954
-4.10139
-4.08038
-4.05595
-4.02689
-3.99067
-3.94699
-3.90816
-4.31845
-4.31712
-4.31576
-4.31436
-4.31293
-4.31148
-4.31
-4.30851
-4.307
-4.30551
-4.30404
-4.30262
-4.30127
-4.30002
-4.29888
-4.29784
-4.29689
-4.296
-4.29512
-4.29418
-4.29303
-4.29142
-4.28926
-4.28675
-4.28425
-4.28172
-4.27854
-4.27409
-4.26791
-4.25974
-4.24942
-4.23689
-4.22201
-4.20456
-4.18412
-4.16013
-4.1314
-4.09543
-4.05193
-4.01297
-4.40384
-4.40262
-4.40136
-4.40006
-4.3987
-4.3973
-4.39584
-4.39433
-4.39278
-4.39121
-4.38964
-4.38811
-4.38666
-4.38534
-4.3842
-4.38325
-4.3825
-4.38192
-4.3815
-4.38131
-4.3811
-4.38025
-4.37862
-4.37675
-4.37581
-4.37593
-4.37584
-4.37419
-4.37031
-4.36392
-4.35494
-4.34345
-4.32953
-4.31297
-4.29335
-4.27008
-4.24199
-4.20665
-4.16382
-4.12509
-4.49016
-4.48907
-4.48794
-4.48676
-4.48551
-4.48418
-4.48277
-4.48127
-4.47968
-4.47804
-4.47635
-4.47469
-4.47311
-4.4717
-4.47054
-4.46965
-4.46903
-4.46865
-4.46869
-4.4696
-4.47086
-4.47089
-4.46947
-4.46769
-4.46816
-4.47183
-4.4762
-4.47854
-4.47762
-4.47314
-4.46539
-4.45483
-4.44202
-4.42657
-4.40803
-4.38575
-4.35861
-4.32432
-4.28264
-4.24457
-4.57736
-4.57644
-4.57547
-4.57444
-4.57332
-4.57211
-4.57077
-4.56931
-4.56771
-4.566
-4.56419
-4.56237
-4.56061
-4.55905
-4.55778
-4.5569
-4.55651
-4.55663
-4.55764
-4.56072
-4.56452
-4.56582
-4.5646
-4.56302
-4.56476
-4.57218
-4.58098
-4.5878
-4.58902
-4.58488
-4.57741
-4.56888
-4.55829
-4.5446
-4.5277
-4.50682
-4.48098
-4.44815
-4.40815
-4.37118
-4.66544
-4.66469
-4.66391
-4.66306
-4.66212
-4.66106
-4.65985
-4.65847
-4.6569
-4.65514
-4.65322
-4.6512
-4.64916
-4.64734
-4.64611
-4.64587
-4.64722
-4.65048
-4.65445
-4.65869
-4.66422
-4.6668
-4.66667
-4.66647
-4.67005
-4.67704
-4.68791
-4.69967
-4.70659
-4.70654
-4.70096
-4.69026
-4.6781
-4.66612
-4.65159
-4.63266
-4.60845
-4.57744
-4.53965
-4.50429
-4.75435
-4.7538
-4.75322
-4.75259
-4.75187
-4.75102
-4.75001
-4.74878
-4.74732
-4.74559
-4.74359
-4.74131
-4.73891
-4.7372
-4.73763
-4.74118
-4.74652
-4.75289
-4.75986
-4.76415
-4.76637
-4.768
-4.77124
-4.77494
-4.78201
-4.79553
-4.80742
-4.82012
-4.83449
-4.8416
-4.83901
-4.82737
-4.81065
-4.79482
-4.77982
-4.76247
-4.73992
-4.71094
-4.67588
-4.64268
-4.84407
-4.84373
-4.84338
-4.843
-4.84256
-4.842
-4.84128
-4.84034
-4.83912
-4.83756
-4.83555
-4.83306
-4.83093
-4.83143
-4.83668
-4.84399
-4.85166
-4.85765
-4.86324
-4.86782
-4.86993
-4.87108
-4.87761
-4.89145
-4.91255
-4.93489
-4.94753
-4.95711
-4.96948
-4.98045
-4.98126
-4.97129
-4.95297
-4.932
-4.91298
-4.89504
-4.87354
-4.84659
-4.81464
-4.78417
-4.93457
-4.93445
-4.93435
-4.93427
-4.93416
-4.93398
-4.93368
-4.9332
-4.93243
-4.93124
-4.92939
-4.9272
-4.92716
-4.93291
-4.94082
-4.94745
-4.95235
-4.95727
-4.96352
-4.97237
-4.98085
-4.98757
-4.99973
-5.0221
-5.04631
-5.07201
-5.09405
-5.10841
-5.11515
-5.11854
-5.11992
-5.11263
-5.09507
-5.06838
-5.04559
-5.02671
-5.00611
-4.98121
-4.95268
-4.92525
-5.02583
-5.02593
-5.02609
-5.02633
-5.02661
-5.02692
-5.0272
-5.02737
-5.02733
-5.02681
-5.02558
-5.02501
-5.02901
-5.03663
-5.04227
-5.04464
-5.04812
-5.05474
-5.06467
-5.07801
-5.09443
-5.11235
-5.12837
-5.14754
-5.17207
-5.20322
-5.23684
-5.25658
-5.2581
-5.25469
-5.251
-5.24441
-5.23024
-5.2019
-5.17467
-5.15338
-5.13376
-5.11092
-5.08577
-5.06084
-5.11783
-5.11813
-5.11855
-5.11912
-5.11984
-5.1207
-5.12168
-5.12273
-5.12369
-5.12433
-5.12474
-5.12657
-5.13203
-5.13795
-5.13884
-5.14089
-5.14635
-5.15449
-5.16559
-5.18022
-5.19891
-5.22034
-5.24353
-5.26671
-5.29354
-5.33034
-5.36266
-5.37919
-5.38208
-5.38012
-5.37518
-5.36683
-5.35469
-5.33037
-5.30077
-5.27664
-5.25451
-5.23182
-5.20925
-5.18308
-5.21055
-5.21101
-5.21166
-5.21254
-5.21368
-5.21511
-5.21684
-5.21885
-5.22101
-5.2232
-5.22595
-5.22951
-5.23346
-5.23712
-5.23747
-5.24068
-5.24631
-5.25474
-5.26632
-5.28133
-5.29977
-5.32124
-5.34591
-5.3785
-5.41075
-5.44547
-5.46814
-5.48422
-5.49369
-5.49741
-5.49474
-5.48544
-5.47175
-5.45032
-5.42024
-5.39234
-5.36449
-5.33805
-5.3142
-5.28375
-5.30396
-5.30453
-5.30534
-5.30646
-5.30794
-5.30985
-5.31226
-5.31518
-5.31856
-5.32239
-5.32732
-5.33266
-5.33624
-5.33786
-5.3386
-5.34165
-5.3472
-5.35577
-5.36752
-5.38253
-5.40069
-5.42168
-5.44615
-5.47926
-5.51843
-5.54981
-5.56807
-5.58688
-5.60322
-5.61318
-5.61401
-5.60463
-5.58841
-5.56491
-5.52948
-5.4943
-5.45826
-5.42322
-5.39116
-5.3566
-5.39804
-5.39865
-5.39953
-5.40076
-5.40244
-5.40467
-5.40756
-5.41117
-5.41553
-5.42075
-5.42753
-5.43529
-5.44102
-5.44107
-5.43992
-5.44248
-5.44831
-5.4573
-5.4692
-5.48395
-5.50129
-5.52094
-5.54319
-5.57156
-5.61585
-5.65361
-5.67613
-5.69346
-5.71424
-5.73233
-5.73885
-5.72962
-5.70836
-5.67804
-5.62936
-5.58134
-5.53242
-5.48252
-5.43492
-5.4002
-5.49278
-5.49332
-5.49412
-5.49529
-5.49696
-5.49927
-5.50241
-5.5065
-5.51163
-5.51805
-5.52724
-5.54041
-5.54982
-5.5458
-5.54042
-5.5425
-5.54944
-5.55913
-5.57105
-5.58499
-5.60083
-5.6181
-5.63638
-5.66022
-5.70709
-5.76118
-5.79424
-5.80571
-5.8284
-5.85952
-5.87981
-5.87649
-5.84865
-5.79218
-5.7204
-5.65485
-5.5935
-5.52698
-5.46159
-5.43058
-5.58814
-5.5885
-5.58906
-5.5899
-5.59119
-5.59315
-5.59612
-5.60055
-5.60691
-5.6156
-5.62816
-5.64983
-5.67243
-5.65681
-5.64369
-5.64602
-5.65334
-5.6624
-5.6729
-5.68484
-5.69853
-5.71429
-5.7309
-5.74916
-5.79451
-5.88097
-5.92879
-5.92002
-5.93882
-6.00002
-6.07049
-6.0918
-6.01529
-5.88053
-5.77195
-5.69772
-5.63356
-5.56229
-5.49525
-5.46902
-5.68467
-5.6848
-5.68503
-5.6854
-5.68603
-5.68716
-5.68919
-5.69293
-5.69975
-5.71154
-5.73038
-5.76741
-5.85716
-5.75512
-5.74819
-5.7562
-5.76186
-5.76896
-5.77778
-5.78757
-5.7986
-5.81297
-5.83453
-5.86052
-5.88592
-6.01059
-6.12239
-5.93515
-5.90203
-6.06915
-6.31513
-6.42408
-6.29242
-6.00145
-5.85351
-5.78883
-5.7503
-5.72286
-5.69082
-5.63909
)
;

boundaryField
{
    leftWall
    {
        type            calculated;
        value           nonuniform 0();
    }
    rightWall
    {
        type            calculated;
        value           nonuniform List<scalar> 
43
(
-1.94679
-2.03812
-2.12778
-2.21578
-2.30204
-2.38642
-2.46876
-2.54888
-2.62654
-2.70142
-2.77379
-2.84317
-2.90987
-2.97427
-3.03684
-3.09815
-3.15887
-3.21976
-3.28161
-3.34528
-3.41163
-3.48149
-3.55561
-3.63471
-3.71945
-3.81044
-3.90816
-4.01297
-4.12509
-4.24457
-4.37118
-4.50429
-4.64268
-4.78417
-4.92525
-5.06084
-5.18308
-5.28375
-5.3566
-5.4002
-5.43058
-5.46902
-5.63909
)
;
    }
    lowerWall
    {
        type            calculated;
        value           nonuniform 0();
    }
    atmosphere
    {
        type            calculated;
        value           nonuniform List<scalar> 
45
(
-5.73336
-5.73339
-5.73343
-5.73347
-5.73352
-5.73358
-5.73367
-5.73377
-5.7339
-5.73406
-5.73425
-5.73445
-5.73457
-5.7344
-5.73353
-5.73135
-5.72905
-6.22661
-5.72928
-5.74793
-5.77563
-5.79864
-5.81653
-5.83053
-5.84142
-5.84923
-5.85294
-5.84894
-5.82552
-5.75805
-6.12126
-6.74914
-5.89589
-5.79371
-6.33391
-7.09385
-7.31658
-6.83958
-5.90579
-5.73423
-5.72997
-5.72977
-5.73877
-5.73911
-5.74628
)
;
    }
    defaultFaces
    {
        type            empty;
    }
    procBoundary3to1
    {
        type            processor;
        value           nonuniform List<scalar> 
45
(
-2.3361
-2.3455
-2.35503
-2.36776
-2.37133
-2.34618
-2.33024
-2.32005
-2.31203
-2.2805
-2.28539
-2.26554
-2.26555
-2.29685
-2.32876
-2.36741
-2.41763
-2.45369
-2.45678
-2.43328
-2.41186
-2.40166
-2.4029
-2.4154
-2.41063
-2.39372
-2.36968
-2.33112
-2.28632
-2.23855
-2.18927
-2.14065
-2.09344
-2.04751
-2.00444
-1.96596
-1.9343
-1.91012
-1.89057
-1.87441
-1.86036
-1.8506
-1.84663
-1.84838
-1.85378
)
;
    }
    procBoundary3to2
    {
        type            processor;
        value           nonuniform List<scalar> 
43
(
-2.38608
-2.44563
-2.50579
-2.56651
-2.62748
-2.68877
-2.75059
-2.81327
-2.87713
-2.94243
-3.00932
-3.07783
-3.14793
-3.21951
-3.29245
-3.36666
-3.44203
-3.51846
-3.59583
-3.67405
-3.75302
-3.8327
-3.91305
-3.99407
-4.07579
-4.15821
-4.24139
-4.32534
-4.4101
-4.49567
-4.58206
-4.66928
-4.75731
-4.84616
-4.93585
-5.02638
-5.11774
-5.20997
-5.30306
-5.39703
-5.49186
-5.58753
-5.6844
)
;
    }
}


// ************************************************************************* //
