/*--------------------------------*- C++ -*----------------------------------*\
| =========                 |                                                 |
| \\      /  F ield         | OpenFOAM: The Open Source CFD Toolbox           |
|  \\    /   O peration     | Version:  5.0                                   |
|   \\  /    A nd           | Web:      www.OpenFOAM.org                      |
|    \\/     M anipulation  |                                                 |
\*---------------------------------------------------------------------------*/
FoamFile
{
    version     2.0;
    format      ascii;
    class       volScalarField;
    location    "0.95";
    object      p_rgh;
}
// * * * * * * * * * * * * * * * * * * * * * * * * * * * * * * * * * * * * * //

dimensions      [1 -1 -2 0 0 0 0];

internalField   nonuniform List<scalar> 
1935
(
-0.0493523
-0.0420188
-0.0344171
-0.0269499
-0.0196342
-0.0123578
-0.00530792
0.00124774
0.00709334
0.0120932
0.0161801
0.0193441
0.021626
0.023108
0.0238959
0.0241032
0.0238493
0.0232496
0.022418
0.0214608
0.0204592
0.0194691
0.0185163
0.0176011
0.0167131
0.0158292
0.0149226
0.0139777
0.0129851
0.0119415
0.0108568
0.00974163
0.00860256
0.00745057
0.0062961
0.00513923
0.00397627
0.00280676
0.00163029
0.000445285
-0.000733895
-0.00186856
-0.00330745
-0.0564448
-0.062778
-0.0699764
-0.0744749
-0.0471146
-0.0508001
-0.0536721
-0.0548147
-0.0374774
-0.0393336
-0.0401789
-0.0396767
-0.0284227
-0.0288441
-0.0284626
-0.0272428
-0.0199949
-0.0194584
-0.0183281
-0.0167401
-0.0120777
-0.0110695
-0.00965855
-0.00799827
-0.00478489
-0.00373079
-0.00240616
-0.000903581
0.00171311
0.00253133
0.00356621
0.00479858
0.00735017
0.00783213
0.00853608
0.00948796
0.0121415
0.0123378
0.0127762
0.0134929
0.0161068
0.0161359
0.0164076
0.0169465
0.0192459
0.0192153
0.0193977
0.0198023
0.0215655
0.0215367
0.0216722
0.0219706
0.0231105
0.0231107
0.0232226
0.0234429
0.0239719
0.0240206
0.0241383
0.0243241
0.0242677
0.0243959
0.0245669
0.0247805
0.0241259
0.024376
0.0246582
0.0249706
0.0236673
0.0240811
0.0245286
0.025002
0.0229971
0.0236034
0.024252
0.0249252
0.0222057
0.0230106
0.0238682
0.024751
0.021359
0.0223456
0.0233951
0.0244714
0.0204977
0.0216322
0.0228386
0.0240732
0.0196391
0.0208791
0.0221965
0.0235436
0.0187803
0.0200799
0.0214597
0.0228717
0.017909
0.0192227
0.0206184
0.0220487
0.0170061
0.0182942
0.0196629
0.0210683
0.016051
0.01728
0.0185854
0.0199285
0.0150314
0.0161734
0.0173858
0.0186356
0.0139438
0.0149772
0.0160729
0.0172036
0.0127916
0.0137012
0.0146618
0.0156524
0.0115876
0.0123619
0.0131742
0.0140092
0.0103481
0.0109807
0.0116367
0.0123062
0.0090866
0.0095782
0.0100765
0.010576
0.00781694
0.0081729
0.00851777
0.00884896
0.00655219
0.00678126
0.00698172
0.00715201
0.00529786
0.00541403
0.00548501
0.0055085
0.00405369
0.00407604
0.0040389
0.00393754
0.00282023
0.00277105
0.00265254
0.00245617
0.00159963
0.00150412
0.00133552
0.0010813
0.000393269
0.000279803
9.66952e-05
-0.000171175
-0.00078649
-0.000889198
-0.00104876
-0.00127987
-0.00190595
-0.00197425
-0.00207704
-0.00222482
-0.00333106
-0.00336409
-0.00340773
-0.00346638
-0.0710602
-0.0670871
-0.061649
-0.0538344
-0.0389877
-0.0383642
-0.030691
-0.0306777
-0.042931
-0.0601955
0.273124
0.344794
0.317074
0.0248052
-0.0307352
-0.0800119
-0.0971578
-0.0992572
-0.105515
-0.0987794
-0.0795332
-0.0543426
-0.0222249
0.0154487
0.0579049
0.102345
0.145152
0.18562
0.224575
0.277419
0.559733
0.70471
0.727565
0.738302
0.454293
0.396546
0.404508
0.407055
0.403899
0.397493
-0.0534568
-0.0513422
-0.0480483
-0.0432568
-0.0366502
-0.034155
-0.0301163
-0.0286243
-0.0333912
-0.0179441
0.432745
0.393609
-0.0773064
-0.0678375
-0.0765474
-0.0728875
-0.0702085
-0.0694308
-0.0683175
-0.0594763
-0.0431513
-0.0180015
0.0226686
0.0892933
0.259019
0.371386
0.316487
0.323096
0.559381
0.636878
0.664137
0.690996
0.6747
0.391509
0.361148
0.373629
0.380542
0.38223
0.378286
0.371495
-0.037873
-0.0355495
-0.0326525
-0.0289503
-0.0246814
-0.0218624
-0.0191251
-0.0175813
-0.0225832
0.321585
0.466439
0.0702315
-0.0493952
-0.0535559
-0.0521473
-0.0491167
-0.0458332
-0.0426318
-0.0379745
-0.0286003
-0.0141318
0.0163623
0.337948
0.452554
0.482146
0.511465
0.540214
0.567238
0.596904
0.629207
0.537563
0.377796
0.312816
0.324899
0.34029
0.350954
0.357275
0.358559
0.354387
0.347763
-0.0254127
-0.0232274
-0.0205902
-0.0174707
-0.0141693
-0.0116052
-0.00942969
-0.00830811
-0.0150851
0.423991
0.501427
0.0658612
-0.0264427
-0.0300977
-0.0299145
-0.0277814
-0.0246628
-0.0207017
-0.0150322
-0.0059515
0.0072837
0.0241017
0.15928
0.47256
0.49517
0.520026
0.499246
0.211892
0.196746
0.214114
0.240919
0.26585
0.287533
0.307778
0.324105
0.329683
0.33491
0.336163
0.332264
0.32631
-0.014909
-0.0128662
-0.0104469
-0.00771286
-0.00495915
-0.00268061
-0.00072543
0.000247825
-0.00735827
0.42397
0.532212
0.0368102
-0.0102622
-0.0114076
-0.011777
-0.010258
-0.00746468
-0.00349244
0.00216244
0.0103838
0.0218034
0.0364292
0.0589797
0.0913139
0.124929
0.138022
0.134743
0.156205
0.181757
0.20633
0.229274
0.250543
0.274865
0.295961
0.309012
0.314466
0.313672
0.315231
0.31205
0.307213
-0.00621765
-0.00426593
-0.00199063
0.00050733
0.00296396
0.00511134
0.00713466
0.00829161
0.000514397
0.488125
0.533112
0.0291424
0.00385967
0.00243084
0.00188102
0.00304444
0.00548726
0.0091559
0.0143801
0.0217049
0.0313563
0.0431404
0.0565882
0.0715666
0.0887343
0.108105
0.128874
0.150326
0.172238
0.193739
0.214671
0.24114
0.26188
0.27696
0.28942
0.295598
0.293831
0.296029
0.293956
0.290611
0.00073379
0.00257328
0.00471409
0.00702831
0.00929306
0.0113926
0.0135836
0.0146577
0.0869534
0.550153
0.491227
0.0286607
0.0138823
0.012931
0.0135818
0.0130637
0.0145197
0.0177838
0.0225532
0.0289787
0.037218
0.0472996
0.0591277
0.072637
0.0880171
0.105068
0.123321
0.142324
0.161717
0.180956
0.201212
0.228623
0.244811
0.259103
0.271112
0.269215
0.275738
0.278874
0.278257
0.276685
0.00623042
0.00790585
0.00985934
0.0119417
0.0139548
0.0158555
0.0178797
0.0183047
0.201445
0.571023
0.492976
0.0301476
0.0201281
0.0196404
0.0239858
0.0240072
0.0203284
0.0231748
0.0272849
0.032917
0.0401291
0.049009
0.0594839
0.071541
0.0852119
0.100336
0.116603
0.13367
0.151155
0.168628
0.185944
0.207068
0.228508
0.242647
0.249724
0.252517
0.259781
0.264112
0.265259
0.265618
0.0106893
0.0121445
0.0138285
0.0155762
0.0171886
0.0185832
0.0199075
0.0200741
0.075175
0.590292
0.570144
0.0561737
0.0232263
0.0222291
0.0266181
0.0287325
0.0290319
0.0260007
0.0296432
0.0345798
0.0409592
0.0488175
0.0581703
0.0689957
0.0812676
0.0948542
0.109527
0.125001
0.140956
0.157038
0.172898
0.188204
0.203308
0.222125
0.228088
0.238147
0.246297
0.252061
0.255199
0.257654
0.0144639
0.0156578
0.0170081
0.0183448
0.0194767
0.0202842
0.0208568
0.0207808
0.0157934
0.515114
0.647129
0.206871
0.0230764
0.0232774
0.0236876
0.0279728
0.030919
0.0287112
0.0302495
0.0347175
0.0404517
0.0475179
0.0559202
0.0657363
0.0768852
0.0892503
0.10265
0.116854
0.131597
0.146592
0.161546
0.176176
0.190214
0.203411
0.21555
0.226344
0.235577
0.242958
0.248187
0.253111
0.0176997
0.0186175
0.019609
0.0205106
0.0211463
0.0213663
0.0211106
0.0201337
0.0165555
0.0648633
0.4041
0.196658
0.0248263
0.0314842
0.0286202
0.0255856
0.0270894
0.0277649
0.0299577
0.0340143
0.0392546
0.0457044
0.0534227
0.0624365
0.072692
0.0840928
0.0964929
0.109704
0.12351
0.137675
0.151957
0.166118
0.179934
0.193197
0.20571
0.217285
0.22777
0.237055
0.244961
0.251728
0.0203589
0.0210143
0.0216717
0.0221867
0.0224119
0.0222101
0.0214658
0.0199824
0.0170578
0.012285
0.0106067
0.0502868
0.0462253
0.0359706
0.0370611
0.0331744
0.0268016
0.026395
0.0293222
0.0331401
0.0380135
0.0440239
0.0512191
0.0596086
0.0691637
0.0798107
0.0914338
0.103882
0.11698
0.130536
0.144351
0.158231
0.171994
0.185476
0.198528
0.211024
0.222897
0.234218
0.244857
0.254
0.0223602
0.0227911
0.0231788
0.0234054
0.0233592
0.0229441
0.0220806
0.0206783
0.0185488
0.0157482
0.0139174
0.0150398
0.0212172
0.0215885
0.0299934
0.0332451
0.0350319
0.0298322
0.0289569
0.0326176
0.037243
0.0429179
0.0496954
0.0575993
0.0666123
0.0766789
0.0877098
0.0995855
0.112166
0.125298
0.138823
0.152587
0.166447
0.180285
0.194002
0.20753
0.220896
0.234368
0.24786
0.259612
0.0237082
0.0239762
0.024182
0.0242353
0.0240568
0.0235889
0.0227971
0.0216712
0.0202251
0.0186424
0.0176342
0.017945
0.0190401
0.0203106
0.021506
0.0317877
0.0355572
0.0320938
0.0291628
0.0327283
0.0371791
0.0426008
0.0490604
0.0565947
0.0651975
0.0748305
0.0854259
0.0968906
0.109116
0.121981
0.135363
0.149143
0.163221
0.177541
0.192034
0.206648
0.221575
0.237285
0.253741
0.268199
0.0245271
0.0247127
0.0248362
0.0248325
0.0246459
0.0242432
0.0236148
0.0227821
0.0218101
0.0208608
0.0202678
0.0203044
0.0241198
0.0300408
0.0277145
0.0247503
0.0262033
0.0276974
0.0301279
0.0336188
0.0379339
0.0431614
0.0493796
0.056639
0.0649435
0.0742666
0.0845573
0.0957458
0.107748
0.120472
0.133826
0.147727
0.162114
0.177013
0.192328
0.208095
0.224615
0.242617
0.262103
0.279298
0.0249992
0.0251935
0.0253362
0.0253826
0.0252918
0.0250426
0.0246351
0.0240965
0.0234894
0.0229292
0.0225916
0.0226218
0.0309025
0.0324012
0.0333521
0.0345163
0.0360864
0.0352212
0.032608
0.0352652
0.0394746
0.0445524
0.05059
0.0576524
0.0657505
0.0748649
0.0849579
0.0959766
0.107858
0.120536
0.133948
0.148044
0.16281
0.17831
0.194463
0.211451
0.229584
0.24989
0.272424
0.292338
0.0252851
0.0255759
0.0258281
0.0260113
0.0260927
0.026056
0.0259028
0.0256554
0.0253613
0.025098
0.0249673
0.0250448
0.0270903
0.0347799
0.0358687
0.0370021
0.0385252
0.0405592
0.0432073
0.0465702
0.046349
0.0467086
0.0525128
0.0594489
0.0674163
0.0764009
0.0863749
0.0973
0.109132
0.121829
0.135355
0.149693
0.164885
0.180983
0.198006
0.216193
0.235945
0.258529
0.284083
0.306655
0.0254787
0.025935
0.0263627
0.0267408
0.0270406
0.027247
0.0273589
0.0273905
0.0273748
0.0273636
0.0274219
0.0276053
0.0279375
0.0291001
0.0314799
0.0397569
0.0413
0.0432811
0.0459104
0.0492601
0.0533779
0.0546765
0.0549732
0.0617664
0.069658
0.078565
0.0884696
0.0993471
0.111172
0.123923
0.137592
0.152194
0.16783
0.184519
0.2024
0.221748
0.243076
0.267882
0.296376
0.321504
0.0256046
0.0262665
0.0269053
0.0275062
0.0280423
0.0284976
0.0288673
0.0291588
0.0293939
0.0296086
0.0298485
0.03016
0.0305839
0.0311673
0.0319765
0.0338073
0.0361214
0.0380224
0.0475014
0.0521093
0.0545999
0.0525736
0.0574663
0.0643035
0.0721455
0.0809942
0.0908451
0.101688
0.113515
0.126327
0.140142
0.155007
0.17107
0.188329
0.207032
0.227484
0.250299
0.277236
0.308543
0.336086
0.0256435
0.0265206
0.0273766
0.0282009
0.0289675
0.029659
0.0302677
0.0307962
0.0312587
0.0316807
0.0320975
0.0325503
0.0330849
0.0337565
0.0346341
0.0357943
0.0373316
0.0393494
0.0422981
0.0460413
0.0498139
0.0543803
0.0599997
0.0667555
0.0745224
0.0832914
0.0930686
0.103857
0.115665
0.128515
0.14245
0.157546
0.173978
0.191783
0.211247
0.232705
0.256913
0.285848
0.319789
0.349566
0.025561
0.0266373
0.0276928
0.0287205
0.0296949
0.030598
0.0314205
0.0321614
0.0328293
0.0334432
0.0340315
0.0346312
0.0352883
0.0360591
0.0370122
0.038227
0.0397954
0.0418165
0.0443885
0.0476129
0.05159
0.0564037
0.0621145
0.0687711
0.0764078
0.0850444
0.0946949
0.105375
0.117111
0.129945
0.143944
0.159205
0.175909
0.194231
0.21437
0.236725
0.262204
0.292963
0.329311
0.361085
0.0253252
0.026567
0.0277891
0.0289873
0.0301373
0.031221
0.0322282
0.0331556
0.0340079
0.0347986
0.0355508
0.0362969
0.0370797
0.0379528
0.0389815
0.0402433
0.0418272
0.0438303
0.046353
0.0494968
0.0533581
0.0580212
0.0635557
0.0700168
0.0774422
0.0858587
0.095292
0.105774
0.117349
0.13008
0.144058
0.159403
0.176284
0.194997
0.215709
0.238833
0.265447
0.29783
0.336312
0.369807
0.0249136
0.0262781
0.0276261
0.0289556
0.0302441
0.0314742
0.0326354
0.0337228
0.0347378
0.0356894
0.0365948
0.0374809
0.0383844
0.0393529
0.0404463
0.0417369
0.0433094
0.0452572
0.0476796
0.0506775
0.0543487
0.0587808
0.0640483
0.0702094
0.0773064
0.0853764
0.0944616
0.104614
0.1159
0.128405
0.142241
0.15755
0.174524
0.193427
0.214558
0.238367
0.265928
0.299683
0.339974
0.375006
0.0243123
0.0257542
0.0271846
0.0286043
0.0299929
0.0313343
0.0326182
0.0338386
0.034994
0.0360883
0.037133
0.0381473
0.0391597
0.0402092
0.0413477
0.0426399
0.0441633
0.0460059
0.0482639
0.0510375
0.054427
0.0585247
0.0634072
0.0691331
0.0757479
0.0833013
0.091859
0.101503
0.112329
0.124448
0.13799
0.153117
0.170034
0.189011
0.210397
0.234687
0.262991
0.297829
0.339551
0.375961
0.0235134
0.0249878
0.0264582
0.0279277
0.0293785
0.0307966
0.0321724
0.0334989
0.0347715
0.0359896
0.0371572
0.038285
0.039391
0.0405037
0.0416641
0.0429265
0.0443583
0.0460397
0.0480621
0.050524
0.0535283
0.0571729
0.0615341
0.0666643
0.0726052
0.0794217
0.0872173
0.0961199
0.106267
0.117799
0.130868
0.145643
0.162337
0.181234
0.202703
0.227267
0.25608
0.291707
0.334483
0.372016
0.022514
0.0239791
0.0254494
0.02693
0.0284067
0.029868
0.0313057
0.0327119
0.0340796
0.0354029
0.0366783
0.0379063
0.0390933
0.0402543
0.0414165
0.0426209
0.0439217
0.0453876
0.047101
0.0491566
0.0516636
0.0547304
0.0584306
0.0627942
0.0678355
0.0736355
0.080364
0.0882248
0.0974177
0.108124
0.120509
0.13474
0.151025
0.169652
0.191002
0.215623
0.244694
0.280792
0.32423
0.362577
0.0213174
0.0227353
0.0241681
0.0256234
0.0270912
0.0285639
0.0300348
0.0314964
0.0329396
0.0343535
0.0357265
0.0370482
0.0383118
0.0395161
0.04067
0.0417965
0.0429331
0.0441331
0.0454644
0.0470126
0.0489038
0.05128
0.0542093
0.0576606
0.0615532
0.0659741
0.0712259
0.0776533
0.085552
0.0951505
0.106619
0.120102
0.13578
0.153929
0.174939
0.199375
0.228425
0.264647
0.308332
0.347165
0.0199349
0.0212713
0.022632
0.0240279
0.0254544
0.0269081
0.0283857
0.0298809
0.0313837
0.0328793
0.034348
0.0357677
0.037115
0.0383682
0.039513
0.0405493
0.041495
0.0423871
0.043272
0.0442067
0.0453542
0.0469666
0.0491256
0.0516433
0.0541396
0.0566721
0.0598456
0.0643011
0.0704795
0.0786499
0.0889643
0.101502
0.116376
0.133834
0.154269
0.178259
0.206988
0.242962
0.286454
0.325424
0.0183849
0.0196093
0.0208669
0.022172
0.0235264
0.0249322
0.0263906
0.027899
0.0294484
0.0310215
0.0325918
0.0341235
0.0355726
0.0368899
0.0380318
0.038975
0.039725
0.0403092
0.0407285
0.0409204
0.0411305
0.0419777
0.043606
0.0454787
0.0464234
0.0462977
0.0463904
0.0480364
0.0519161
0.0583127
0.0672899
0.0787788
0.092694
0.109256
0.128876
0.152149
0.180242
0.215576
0.25841
0.297139
0.0166922
0.0177784
0.0189045
0.020089
0.0213403
0.0226679
0.02408
0.02558
0.0271626
0.0288111
0.0304934
0.0321591
0.0337378
0.0351466
0.0363119
0.037198
0.0378149
0.0381969
0.0381604
0.0372559
0.0359984
0.0359639
0.0373896
0.046315
0.0588916
0.0521235
0.0350668
0.0283054
0.0292256
0.0337058
0.0414622
0.0520179
0.0648229
0.0802742
0.0988222
0.121097
0.148234
0.182524
0.224203
0.26228
0.014889
0.0158141
0.0167824
0.0178157
0.0189308
0.020146
0.0214787
0.0229416
0.0245375
0.0262542
0.0280573
0.0298828
0.031637
0.0332058
0.0344756
0.0353577
0.0357499
0.0356589
0.0436258
0.0562743
0.0323239
0.0367429
0.0934396
0.637664
0.668727
0.204833
0.0282902
0.00483797
0.00328574
0.00737529
0.0148437
0.0233728
0.0339593
0.0476494
0.0645509
0.085427
0.111269
0.144106
0.184108
0.221078
0.013012
0.0137564
0.0145412
0.0153918
0.0163332
0.0173932
0.0186006
0.019981
0.0215506
0.0233082
0.0252264
0.0272494
0.029284
0.0311148
0.0323454
0.0326628
0.0368258
0.090356
0.438071
0.619305
0.184296
0.216324
0.797738
1.03236
0.854554
0.191689
0.027014
0.0667762
0.667738
0.928204
0.800483
0.147913
0.000341043
0.0123058
0.026851
0.045787
0.0700028
0.101016
0.138804
0.17416
0.0110988
0.0116457
0.0122223
0.0128561
0.0135785
0.0144262
0.0154402
0.0166618
0.0181262
0.019854
0.0218565
0.0241381
0.0265402
0.0282966
0.030834
0.166075
0.527989
0.716431
0.698115
0.688001
0.471998
0.208537
0.239642
0.843774
2.46834
2.04735
0.230593
0.0595964
0.428599
0.94161
0.958987
0.985418
0.579882
-0.0197622
-0.0142598
0.00296429
0.0255298
0.0545057
0.0895778
0.122769
0.00918491
0.00952179
0.00986703
0.0102468
0.010695
0.0112541
0.0119753
0.0129158
0.0141329
0.015693
0.0177037
0.0201876
0.0223434
0.0864425
0.561647
0.762618
0.750011
0.728611
0.328662
-0.0111519
-0.0123908
0.181007
0.853903
2.52893
2.47641
2.45328
1.96491
0.099038
-0.0210741
0.315299
0.938639
0.951904
0.973948
0.156927
-0.0590806
-0.0417455
-0.0202897
0.00666986
0.0386141
0.0690883
0.00730347
0.00742349
0.00751773
0.00760557
0.00771698
0.00789373
0.00819114
0.00867692
0.00943801
0.0106298
0.0124809
0.0146687
0.0822162
0.888513
0.876885
0.764852
0.256296
-0.0151182
-0.0215027
-0.030211
-0.0385497
1.92588
2.57074
2.49952
2.47677
2.45188
2.42902
1.13515
-0.138784
-0.170698
0.225767
0.922079
0.939641
0.197713
-0.102809
-0.0847895
-0.0642273
-0.0393328
-0.0108049
0.0166295
0.00548536
0.00539023
0.00522213
0.00498672
0.00470143
0.00439688
0.00412048
0.00394135
0.00398289
0.00450546
0.00573754
0.0340544
0.980066
0.96369
0.527614
-0.0119957
-0.0165241
-0.0232771
-0.0332084
-0.0464785
0.0286749
0.709031
2.48851
2.52789
2.48258
2.46361
2.04444
0.198721
-0.221912
-0.221644
-0.216141
0.0905493
0.723735
1.57651
-0.0646763
-0.121912
-0.102434
-0.079599
-0.0544521
-0.0295106
0.00375952
0.0034642
0.00303905
0.00246929
0.00175001
0.000887397
-9.47255e-05
-0.0011388
-0.00210517
-0.00274209
-0.00314782
0.619021
1.0395
0.569352
-0.00878455
-0.00662488
0.00335941
-0.0300417
-0.0436991
-0.0298777
-0.0758148
-0.0987275
0.410739
2.52604
2.50043
1.20978
-0.159266
-0.249688
-0.258128
-0.25729
-0.25214
-0.241572
0.216515
1.6512
1.31361
-0.0141461
-0.132882
-0.110219
-0.0876467
-0.0614729
0.00215481
0.00169274
0.0010425
0.000164553
-0.000975534
-0.00240619
-0.00414029
-0.00614694
-0.0083066
-0.0105034
0.00688266
0.879989
1.04785
-0.0181608
-0.0163798
0.0225643
0.0182763
-0.0198064
-0.0535617
-0.0685716
-0.087045
-0.108522
-0.133201
1.25518
2.48443
0.120938
-0.252164
-0.269952
-0.279734
-0.2835
-0.280797
-0.271233
-0.175841
1.66274
1.68363
0.0364296
-0.151367
-0.125296
-0.101357
-0.0710456
0.000700838
0.00012668
-0.000684632
-0.00179802
-0.00327929
-0.00519488
-0.00760265
-0.0105223
-0.0138964
-0.0177321
0.00512828
0.675539
0.854417
-0.0268337
-0.0111987
0.0156474
0.0103094
-0.013148
-0.0627107
-0.0778291
-0.0955999
-0.116908
-0.141481
-0.159871
1.71292
0.391022
-0.261238
-0.280939
-0.297331
-0.307301
-0.308121
-0.298708
-0.171055
1.67142
1.70915
0.0222519
-0.153556
-0.11851
-0.0863478
-0.0518767
-0.000573209
-0.00118297
-0.00205874
-0.00328856
-0.00496856
-0.00720161
-0.0100882
-0.0137014
-0.0180607
-0.0232776
-0.0258687
0.575553
0.802218
-0.0370492
-0.0356958
-0.000888339
-0.00189385
-0.0473414
-0.0715811
-0.0864403
-0.10318
-0.123273
-0.145723
-0.174084
0.733497
1.20808
-0.112661
-0.294693
-0.315524
-0.333615
-0.340138
-0.330699
-0.163517
1.6863
1.73359
0.37087
-0.134922
-0.0850193
-0.0373348
-0.00265279
-0.00163139
-0.00217565
-0.00297993
-0.0041499
-0.00581506
-0.00812998
-0.0112631
-0.0153578
-0.020487
-0.0269047
-0.0360987
0.54088
0.807223
-0.0407646
-0.0492751
-0.0513582
-0.0577777
-0.0679881
-0.0795686
-0.0938201
-0.109047
-0.126867
-0.145233
-0.169073
0.0304291
1.21967
0.127559
-0.313264
-0.335971
-0.367102
-0.387199
-0.372338
1.35559
1.6989
1.76406
0.105715
-0.10233
-0.0358139
0.0295569
0.0605664
-0.00245392
-0.00281533
-0.0033687
-0.00421541
-0.00550503
-0.00746454
-0.0104326
-0.0148656
-0.0212261
-0.029908
-0.0424744
0.134621
0.794284
0.0363794
-0.058003
-0.0603339
-0.0676555
-0.0767109
-0.0871075
-0.099145
-0.112818
-0.128589
-0.145212
-0.163468
-0.208826
1.19716
0.649649
-0.332128
-0.351807
-0.412811
-0.454098
1.07402
1.53519
1.7337
0.471209
-0.111943
-0.0478407
0.0234206
0.0982592
0.159313
-0.0035562
-0.00369543
-0.00391727
-0.00428648
-0.00492177
-0.0060464
-0.00808096
-0.011817
-0.0186427
-0.0304339
-0.0492697
-0.0863047
0.317353
0.064864
-0.0670769
-0.0750959
-0.0807489
-0.0878503
-0.0966745
-0.106458
-0.11749
-0.131861
-0.15342
-0.179414
-0.204812
0.0594617
0.570289
-0.0885915
-0.15679
0.21177
0.719364
0.831284
0.489945
-0.145072
-0.167252
-0.106795
-0.0684584
-0.0321057
0.000272157
0.0479291
)
;

boundaryField
{
    leftWall
    {
        type            fixedFluxPressure;
        gradient        nonuniform 0();
        value           nonuniform 0();
    }
    rightWall
    {
        type            fixedFluxPressure;
        gradient        uniform 0;
        value           nonuniform List<scalar> 
43
(
0.397493
0.371495
0.347763
0.32631
0.307213
0.290611
0.276685
0.265618
0.257654
0.253111
0.251728
0.254
0.259612
0.268199
0.279298
0.292338
0.306655
0.321504
0.336086
0.349566
0.361085
0.369807
0.375006
0.375961
0.372016
0.362577
0.347165
0.325424
0.297139
0.26228
0.221078
0.17416
0.122769
0.0690883
0.0166295
-0.0295106
-0.0614729
-0.0710456
-0.0518767
-0.00265279
0.0605664
0.159313
0.0479291
)
;
    }
    lowerWall
    {
        type            fixedFluxPressure;
        gradient        nonuniform 0();
        value           nonuniform 0();
    }
    atmosphere
    {
        type            totalPressure;
        rho             rho;
        psi             none;
        gamma           1;
        p0              uniform 0;
        value           nonuniform List<scalar> 
45
(
-0.00431751
-0.00435033
-0.00438696
-0.00442969
-0.00448008
-0.00454351
-0.00462676
-0.00473102
-0.00486179
-0.00502364
-0.00521425
-0.00540886
-0.00552569
-0.00535951
-0.00448643
-0.0023055
-1.212e-05
0
-0.000239593
-0.018893
-0.0465937
-0.069596
-0.0874908
-0.101493
-0.112377
-0.120194
-0.1239
-0.119902
-0.0964788
-0.0290149
0
0
0
0
0
0
0
0
0
0
0
0
0
0
-0.0172427
)
;
    }
    defaultFaces
    {
        type            empty;
    }
    procBoundary3to1
    {
        type            processor;
        value           nonuniform List<scalar> 
45
(
-0.0565417
-0.0659428
-0.0754753
-0.0882038
-0.0917677
-0.0666083
-0.0506868
-0.0405674
-0.0324734
-0.000944348
-0.00582822
0.0140194
0.0140057
-0.0172914
-0.0491973
-0.0867471
0.190834
0.247583
0.0347297
-0.0918093
-0.107738
-0.0918634
-0.0178786
-0.017637
-0.131056
-0.114142
-0.0899573
-0.0505565
-0.00676402
0.041007
0.0902928
0.138905
0.186121
0.232045
0.275117
0.313619
0.375787
0.650796
0.761818
0.772803
0.429279
0.428958
0.432926
0.431184
0.425785
)
;
    }
    procBoundary3to2
    {
        type            processor;
        value           nonuniform List<scalar> 
43
(
-0.0418004
-0.0360201
-0.0302504
-0.024422
-0.0182361
-0.0117342
-0.00513996
0.00122543
0.00705257
0.0120932
0.0161981
0.0193323
0.0215521
0.0229621
0.0236801
0.0238203
0.0234892
0.0228
0.0218677
0.0207984
0.0196857
0.0185948
0.0175616
0.0165952
0.0156812
0.0148011
0.013932
0.0130457
0.0121274
0.0111757
0.0101893
0.00917311
0.00813814
0.0070874
0.0060195
0.00493856
0.00384539
0.00273203
0.00159484
0.000439325
-0.000718207
-0.00184635
-0.00328828
)
;
    }
}


// ************************************************************************* //
