/*--------------------------------*- C++ -*----------------------------------*\
| =========                 |                                                 |
| \\      /  F ield         | OpenFOAM: The Open Source CFD Toolbox           |
|  \\    /   O peration     | Version:  5.0                                   |
|   \\  /    A nd           | Web:      www.OpenFOAM.org                      |
|    \\/     M anipulation  |                                                 |
\*---------------------------------------------------------------------------*/
FoamFile
{
    version     2.0;
    format      ascii;
    class       surfaceScalarField;
    location    "0.95";
    object      phi;
}
// * * * * * * * * * * * * * * * * * * * * * * * * * * * * * * * * * * * * * //

dimensions      [0 3 -1 0 0 0 0];

internalField   nonuniform List<scalar> 
3782
(
1.47488e-05
2.80516e-05
1.54813e-05
3.23276e-05
1.5807e-05
3.50438e-05
1.58679e-05
3.659e-05
1.57617e-05
3.72777e-05
1.55499e-05
3.73419e-05
1.52698e-05
3.69579e-05
1.49418e-05
3.62594e-05
1.45742e-05
3.535e-05
1.41677e-05
3.431e-05
1.37182e-05
3.32013e-05
1.32191e-05
3.20694e-05
1.26632e-05
3.09465e-05
1.20435e-05
2.98534e-05
1.13548e-05
2.88007e-05
1.05937e-05
2.7791e-05
9.75917e-06
2.68197e-05
8.85275e-06
2.58771e-05
7.87857e-06
2.49495e-05
6.84327e-06
2.40212e-05
5.75576e-06
2.30753e-05
4.62704e-06
2.20953e-05
3.46986e-06
2.10663e-05
2.29842e-06
1.9976e-05
1.12807e-06
1.88156e-05
-2.50688e-08
1.75806e-05
-1.14473e-06
1.62717e-05
-2.21486e-06
1.48948e-05
-3.22026e-06
1.34621e-05
-4.14735e-06
1.19915e-05
-4.98475e-06
1.0507e-05
-5.72425e-06
9.03758e-06
-6.36162e-06
7.61579e-06
-6.89708e-06
6.27557e-06
-7.33543e-06
5.04909e-06
-7.6857e-06
3.96293e-06
-7.96009e-06
3.03414e-06
-8.17193e-06
2.26684e-06
-8.3335e-06
1.65046e-06
-8.45388e-06
1.161e-06
-8.53793e-06
7.65929e-07
-8.5871e-06
4.31989e-07
1.3396e-07
2.66564e-05
1.23547e-05
2.52784e-05
1.07305e-05
2.3932e-05
9.02224e-06
7.34009e-06
2.2791e-05
3.14699e-05
1.32124e-05
3.05248e-05
1.16756e-05
2.95432e-05
1.00038e-05
8.24551e-06
2.86378e-05
3.4549e-05
1.37072e-05
3.39064e-05
1.23182e-05
3.31538e-05
1.07564e-05
9.04592e-06
3.23535e-05
3.63311e-05
1.3966e-05
3.58887e-05
1.27606e-05
3.52805e-05
1.13647e-05
9.79125e-06
3.45351e-05
3.71703e-05
1.40733e-05
3.68581e-05
1.30729e-05
3.63434e-05
1.18793e-05
1.05004e-05
3.56342e-05
3.73332e-05
1.4082e-05
3.71095e-05
1.32966e-05
3.66627e-05
1.23261e-05
1.11745e-05
3.59886e-05
3.70178e-05
1.40221e-05
3.68614e-05
1.3453e-05
3.64744e-05
1.2713e-05
1.18031e-05
3.58459e-05
3.63733e-05
1.39082e-05
3.6277e-05
1.35494e-05
3.59532e-05
1.30369e-05
1.23688e-05
3.53875e-05
3.55139e-05
1.37442e-05
3.54795e-05
1.35839e-05
3.52288e-05
1.32876e-05
1.28512e-05
3.47465e-05
3.45267e-05
1.35277e-05
3.45613e-05
1.35492e-05
3.43969e-05
1.34519e-05
1.32294e-05
3.40187e-05
3.34769e-05
1.32521e-05
3.35902e-05
1.34359e-05
3.35259e-05
1.35162e-05
1.3485e-05
3.32703e-05
3.24118e-05
1.29097e-05
3.26137e-05
1.3234e-05
3.26617e-05
1.34683e-05
1.36029e-05
3.25438e-05
3.13636e-05
1.24925e-05
3.16629e-05
1.29348e-05
3.18329e-05
1.32983e-05
1.35725e-05
3.18633e-05
3.03517e-05
1.19942e-05
3.07549e-05
1.25316e-05
3.10533e-05
1.29999e-05
1.33875e-05
3.12383e-05
2.9385e-05
1.141e-05
2.9896e-05
1.20206e-05
3.03259e-05
1.25699e-05
1.3046e-05
3.06674e-05
2.84633e-05
1.07377e-05
2.90832e-05
1.14008e-05
2.96443e-05
1.20088e-05
1.25499e-05
3.01404e-05
2.75797e-05
9.97766e-06
2.83066e-05
1.06739e-05
2.89952e-05
1.13203e-05
1.19049e-05
2.96402e-05
2.67218e-05
9.13296e-06
2.75508e-05
9.8448e-06
2.83601e-05
1.0511e-05
1.112e-05
2.9145e-05
2.58733e-05
8.20919e-06
2.6797e-05
8.92111e-06
2.77171e-05
9.59088e-06
1.02072e-05
2.86299e-05
2.50159e-05
7.21444e-06
2.60241e-05
7.9129e-06
2.7043e-05
8.57206e-06
9.18113e-06
2.8069e-05
2.41307e-05
6.15903e-06
2.52111e-05
6.83248e-06
2.63141e-05
7.46909e-06
8.0586e-06
2.74366e-05
2.31991e-05
5.0552e-06
2.43375e-05
5.6941e-06
2.55082e-05
6.29833e-06
6.8582e-06
2.67086e-05
2.22047e-05
3.91686e-06
2.33852e-05
4.51358e-06
2.46059e-05
5.07764e-06
5.59994e-06
2.58642e-05
2.11337e-05
2.75919e-06
2.23393e-05
3.30797e-06
2.35909e-05
3.82601e-06
4.30479e-06
2.48861e-05
1.99764e-05
1.59842e-06
2.11891e-05
2.09525e-06
2.24518e-05
2.56324e-06
2.99446e-06
2.37622e-05
1.87276e-05
4.51415e-07
1.99289e-05
8.9394e-07
2.11826e-05
1.30958e-06
1.69098e-06
2.24861e-05
1.73879e-05
-6.64815e-07
1.85592e-05
-2.77323e-07
1.97834e-05
8.53208e-08
4.16335e-07
2.10581e-05
1.59636e-05
-1.73359e-06
1.70866e-05
-1.40033e-06
1.82617e-05
-1.08973e-06
-8.08022e-07
1.9486e-05
1.44676e-05
-2.73911e-06
1.55251e-05
-2.45785e-06
1.66322e-05
-2.19684e-06
-1.96177e-06
1.7786e-05
1.29196e-05
-3.66718e-06
1.3896e-05
-3.43433e-06
1.49183e-05
-3.21907e-06
-3.02653e-06
1.59831e-05
1.13457e-05
-4.50593e-06
1.22282e-05
-4.31677e-06
1.31514e-05
-4.14224e-06
-3.98683e-06
1.41117e-05
9.77838e-06
-5.24672e-06
1.05573e-05
-5.0957e-06
1.1371e-05
-4.95597e-06
-4.83133e-06
1.22155e-05
8.25411e-06
-5.88502e-06
8.92452e-06
-5.7661e-06
9.62339e-06
-5.65484e-06
-5.55415e-06
1.03462e-05
6.81156e-06
-6.42101e-06
7.37372e-06
-6.32826e-06
7.95821e-06
-6.23932e-06
-6.15607e-06
8.56013e-06
5.48785e-06
-6.85978e-06
5.94761e-06
-6.78802e-06
6.42456e-06
-6.71628e-06
-6.64524e-06
6.91373e-06
4.31411e-06
-7.21096e-06
4.68248e-06
-7.15639e-06
5.06472e-06
-7.09852e-06
-7.03679e-06
5.45626e-06
3.31065e-06
-7.48747e-06
3.60235e-06
-7.44808e-06
3.90695e-06
-7.40312e-06
-7.35088e-06
4.22104e-06
2.48272e-06
-7.70337e-06
2.71353e-06
-7.67891e-06
2.95861e-06
-7.6482e-06
-7.60882e-06
3.21654e-06
1.81818e-06
-7.8711e-06
2.00159e-06
-7.86233e-06
2.20194e-06
-7.84856e-06
-7.82736e-06
2.42047e-06
1.28896e-06
-7.99905e-06
1.43292e-06
-8.00629e-06
1.59586e-06
-8.0115e-06
-8.013e-06
1.7815e-06
8.57321e-07
-8.09041e-06
9.62966e-07
-8.11192e-06
1.08652e-06
-8.13505e-06
-8.15943e-06
1.23296e-06
4.86277e-07
-8.1447e-06
5.50127e-07
-8.17577e-06
6.2641e-07
-8.21133e-06
-8.2522e-06
7.19189e-07
1.50733e-07
1.70477e-07
1.94151e-07
2.23172e-07
2.23272e-05
6.34112e-06
2.25926e-05
4.12586e-06
2.32608e-05
1.43788e-06
2.4128e-05
-1.56164e-06
2.54669e-05
-4.64245e-06
2.64527e-05
-8.16529e-06
2.74043e-05
-1.1594e-05
2.79715e-05
-1.51412e-05
2.76631e-05
-1.89281e-05
2.64384e-05
-2.26181e-05
2.43586e-05
-2.59198e-05
2.13818e-05
-2.86787e-05
1.75102e-05
-3.0693e-05
1.28904e-05
-3.1478e-05
7.91747e-06
-3.1178e-05
2.77234e-06
-3.02162e-05
-2.45129e-06
-2.88163e-05
-7.7536e-06
-2.70889e-05
-1.32505e-05
-2.49096e-05
-1.85761e-05
-2.18566e-05
-2.33813e-05
-1.80543e-05
-2.74855e-05
-1.37875e-05
-3.06494e-05
-9.37193e-06
-3.2699e-05
-5.21192e-06
-3.35629e-05
-1.60271e-06
-3.3294e-05
1.23224e-06
-3.2043e-05
3.15871e-06
-2.9989e-05
4.01927e-06
-2.72819e-05
3.66479e-06
-2.41553e-05
2.24539e-06
-2.09135e-05
-7.6983e-08
-1.77464e-05
-3.09836e-06
-1.47746e-05
-6.56591e-06
-1.20801e-05
-1.02164e-05
-9.59257e-06
-1.3995e-05
-7.27784e-06
-1.77988e-05
-5.23125e-06
-2.14058e-05
-3.3715e-06
-2.46723e-05
-1.58323e-06
-2.76395e-05
-2.92073e-05
2.7925e-05
7.05389e-06
2.75067e-05
4.54416e-06
2.72355e-05
1.70911e-06
2.70198e-05
-1.3459e-06
2.68772e-05
-4.49983e-06
2.65218e-05
-7.8099e-06
2.60058e-05
-1.1078e-05
2.51955e-05
-1.43309e-05
2.38713e-05
-1.76039e-05
2.19092e-05
-2.0656e-05
1.92679e-05
-2.32785e-05
1.58706e-05
-2.52814e-05
1.16389e-05
-2.64614e-05
6.92072e-06
-2.67598e-05
2.02348e-06
-2.62808e-05
-2.93729e-06
-2.52554e-05
-7.91118e-06
-2.38424e-05
-1.2899e-05
-2.21011e-05
-1.78586e-05
-1.995e-05
-2.24886e-05
-1.72266e-05
-2.65227e-05
-1.40201e-05
-2.97885e-05
-1.05217e-05
-3.21179e-05
-7.04249e-06
-3.34173e-05
-3.91252e-06
-3.36866e-05
-1.33344e-06
-3.30109e-05
5.56569e-07
-3.14957e-05
1.64352e-06
-2.9325e-05
1.84852e-06
-2.67111e-05
1.05096e-06
-2.38098e-05
-6.56007e-07
-2.08253e-05
-3.06143e-06
-1.79139e-05
-6.00982e-06
-1.51441e-05
-9.33567e-06
-1.24932e-05
-1.28673e-05
-9.97461e-06
-1.65136e-05
-7.67906e-06
-2.00943e-05
-5.59927e-06
-2.34855e-05
-3.65539e-06
-2.66161e-05
-1.75067e-06
-2.95443e-05
-3.0958e-05
3.1492e-05
7.91532e-06
3.06576e-05
5.37865e-06
2.97733e-05
2.59335e-06
2.87917e-05
-3.64302e-07
2.76954e-05
-3.40347e-06
2.63807e-05
-6.49526e-06
2.48422e-05
-9.53945e-06
2.30309e-05
-1.25197e-05
2.08834e-05
-1.54563e-05
1.83104e-05
-1.80829e-05
1.5118e-05
-2.00861e-05
1.12691e-05
-2.14325e-05
6.90544e-06
-2.20977e-05
2.26181e-06
-2.21162e-05
-2.47492e-06
-2.15441e-05
-7.20301e-06
-2.05273e-05
-1.18712e-05
-1.91743e-05
-1.64395e-05
-1.75328e-05
-2.08131e-05
-1.55764e-05
-2.47785e-05
-1.32612e-05
-2.81313e-05
-1.06673e-05
-3.06941e-05
-7.95893e-06
-3.2333e-05
-5.40361e-06
-3.30587e-05
-3.18684e-06
-3.29385e-05
-1.45362e-06
-3.20366e-05
-3.45314e-07
-3.04407e-05
4.75807e-08
-2.83178e-05
-2.74316e-07
-2.58466e-05
-1.42021e-06
-2.31742e-05
-3.32844e-06
-2.04064e-05
-5.82919e-06
-1.7638e-05
-8.77826e-06
-1.49508e-05
-1.20229e-05
-1.23685e-05
-1.54496e-05
-9.96419e-06
-1.89179e-05
-7.75184e-06
-2.23067e-05
-5.70495e-06
-2.55324e-05
-3.75851e-06
-2.85626e-05
-1.83405e-06
-3.14687e-05
-3.2792e-05
3.35758e-05
8.87465e-06
3.24767e-05
6.47774e-06
3.1198e-05
3.87206e-06
2.97126e-05
1.12107e-06
2.80088e-05
-1.69963e-06
2.60515e-05
-4.53798e-06
2.38389e-05
-7.32682e-06
2.13575e-05
-1.00383e-05
1.85846e-05
-1.26835e-05
1.54867e-05
-1.4985e-05
1.19345e-05
-1.65339e-05
7.89555e-06
-1.73935e-05
3.54568e-06
-1.77479e-05
-9.71651e-07
-1.75989e-05
-5.50582e-06
-1.70099e-05
-9.9629e-06
-1.60702e-05
-1.42787e-05
-1.48584e-05
-1.83907e-05
-1.34208e-05
-2.21998e-05
-1.17673e-05
-2.55523e-05
-9.90876e-06
-2.82972e-05
-7.92238e-06
-3.03057e-05
-5.95047e-06
-3.15063e-05
-4.20302e-06
-3.1891e-05
-2.80217e-06
-3.15411e-05
-1.80355e-06
-3.05413e-05
-1.34506e-06
-2.89735e-05
-1.52021e-06
-2.69096e-05
-2.33827e-06
-2.45124e-05
-3.8174e-06
-2.19561e-05
-5.8847e-06
-1.93416e-05
-8.44368e-06
-1.67426e-05
-1.13773e-05
-1.42168e-05
-1.45487e-05
-1.18214e-05
-1.7845e-05
-9.58332e-06
-2.1156e-05
-7.50268e-06
-2.43873e-05
-5.55474e-06
-2.74804e-05
-3.68594e-06
-3.04314e-05
-1.8349e-06
-3.33198e-05
-3.46269e-05
3.46212e-05
9.88772e-06
3.3367e-05
7.73187e-06
3.185e-05
5.38909e-06
3.00559e-05
2.91512e-06
2.79824e-05
3.73867e-07
2.56252e-05
-2.18071e-06
2.29956e-05
-4.69725e-06
2.00997e-05
-7.14241e-06
1.69177e-05
-9.50148e-06
1.3487e-05
-1.15543e-05
9.77123e-06
-1.28182e-05
5.7214e-06
-1.33437e-05
1.46456e-06
-1.3491e-05
-2.86211e-06
-1.32722e-05
-7.13961e-06
-1.27324e-05
-1.12785e-05
-1.19314e-05
-1.52078e-05
-1.09291e-05
-1.88584e-05
-9.77022e-06
-2.21417e-05
-8.48407e-06
-2.49448e-05
-7.10565e-06
-2.71602e-05
-5.70697e-06
-2.87088e-05
-4.40188e-06
-2.95729e-05
-3.33892e-06
-2.97599e-05
-2.61522e-06
-2.92808e-05
-2.28268e-06
-2.82088e-05
-2.41706e-06
-2.66447e-05
-3.08431e-06
-2.4676e-05
-4.30693e-06
-2.24517e-05
-6.04164e-06
-2.00888e-05
-8.24761e-06
-1.76844e-05
-1.08481e-05
-1.53124e-05
-1.37492e-05
-1.30243e-05
-1.68368e-05
-1.08586e-05
-2.00107e-05
-8.83131e-06
-2.31833e-05
-6.93758e-06
-2.6281e-05
-5.15401e-06
-2.92639e-05
-3.43997e-06
-3.21454e-05
-1.75091e-06
-3.50088e-05
-3.63778e-05
3.49627e-05
1.09136e-05
3.36384e-05
9.05622e-06
3.2002e-05
7.02551e-06
3.00473e-05
4.86983e-06
2.77787e-05
2.64245e-06
2.52075e-05
3.9047e-07
2.2356e-05
-1.84583e-06
1.92463e-05
-4.03264e-06
1.5884e-05
-6.13926e-06
1.23377e-05
-8.00798e-06
8.59213e-06
-9.0726e-06
4.63647e-06
-9.38806e-06
5.60415e-07
-9.41499e-06
-3.51262e-06
-9.19917e-06
-7.48277e-06
-8.76226e-06
-1.12659e-05
-8.14823e-06
-1.47917e-05
-7.40336e-06
-1.79937e-05
-6.56818e-06
-2.07981e-05
-5.67976e-06
-2.31226e-05
-4.78115e-06
-2.48935e-05
-3.936e-06
-2.60636e-05
-3.23185e-06
-2.66321e-05
-2.77038e-06
-2.66201e-05
-2.62721e-06
-2.60546e-05
-2.84817e-06
-2.4991e-05
-3.48065e-06
-2.35156e-05
-4.55974e-06
-2.17339e-05
-6.08857e-06
-1.97404e-05
-8.0352e-06
-1.76334e-05
-1.03545e-05
-1.54982e-05
-1.29834e-05
-1.34018e-05
-1.58456e-05
-1.13908e-05
-1.88478e-05
-9.49306e-06
-2.19085e-05
-7.72051e-06
-2.49558e-05
-6.06846e-06
-2.79331e-05
-4.51217e-06
-3.08202e-05
-3.02506e-06
-3.36325e-05
-1.57878e-06
-3.64551e-05
-3.79566e-05
3.48474e-05
1.19121e-05
3.35236e-05
1.038e-05
3.18645e-05
8.68464e-06
2.9868e-05
6.86632e-06
2.75423e-05
4.96811e-06
2.49051e-05
3.02769e-06
2.19861e-05
1.07311e-06
1.88313e-05
-8.77836e-07
1.55027e-05
-2.81063e-06
1.19942e-05
-4.49954e-06
8.33108e-06
-5.40946e-06
4.54572e-06
-5.6027e-06
7.21508e-07
-5.59078e-06
-3.04575e-06
-5.43192e-06
-6.66812e-06
-5.1399e-06
-1.00712e-05
-4.74513e-06
-1.31909e-05
-4.28371e-06
-1.59676e-05
-3.79144e-06
-1.8343e-05
-3.30433e-06
-2.02594e-05
-2.86483e-06
-2.16693e-05
-2.52601e-06
-2.25482e-05
-2.35295e-06
-2.29031e-05
-2.41546e-06
-2.2761e-05
-2.76932e-06
-2.21586e-05
-3.45064e-06
-2.11514e-05
-4.4878e-06
-1.98149e-05
-5.89622e-06
-1.82346e-05
-7.66893e-06
-1.64923e-05
-9.77744e-06
-1.4668e-05
-1.21788e-05
-1.28335e-05
-1.4818e-05
-1.10473e-05
-1.76317e-05
-9.34706e-06
-2.05481e-05
-7.75555e-06
-2.35e-05
-6.28238e-06
-2.6429e-05
-4.91993e-06
-2.92955e-05
-3.64906e-06
-3.20911e-05
-2.45223e-06
-3.48293e-05
-1.31731e-06
-3.759e-05
-3.92739e-05
3.44559e-05
1.28437e-05
3.31946e-05
1.16414e-05
3.15951e-05
1.02841e-05
2.96579e-05
8.80354e-06
2.73928e-05
7.23324e-06
2.48188e-05
5.6017e-06
2.19671e-05
3.92473e-06
1.89001e-05
2.18923e-06
1.56915e-05
3.97934e-07
1.23401e-05
-1.14812e-06
8.87187e-06
-1.94126e-06
5.33723e-06
-2.06806e-06
1.82066e-06
-2.07422e-06
-1.60017e-06
-2.01109e-06
-4.84726e-06
-1.89281e-06
-7.85721e-06
-1.73518e-06
-1.05763e-05
-1.56465e-06
-1.29552e-05
-1.41247e-06
-1.49492e-05
-1.31035e-06
-1.65193e-05
-1.29473e-06
-1.76377e-05
-1.40761e-06
-1.82947e-05
-1.69592e-06
-1.85031e-05
-2.20708e-06
-1.82928e-05
-2.97967e-06
-1.77044e-05
-4.03899e-06
-1.67919e-05
-5.4003e-06
-1.56213e-05
-7.06686e-06
-1.4264e-05
-9.0262e-06
-1.27907e-05
-1.12507e-05
-1.12681e-05
-1.37014e-05
-9.75557e-06
-1.63305e-05
-8.30257e-06
-1.90847e-05
-6.94156e-06
-2.19091e-05
-5.69036e-06
-2.47512e-05
-4.55548e-06
-2.75638e-05
-3.52713e-06
-3.03239e-05
-2.59317e-06
-3.3025e-05
-1.73929e-06
-3.56832e-05
-9.68829e-07
-3.83604e-05
-4.02427e-05
3.39193e-05
1.36709e-05
3.27743e-05
1.27864e-05
3.13047e-05
1.17537e-05
2.95122e-05
1.0596e-05
2.7408e-05
9.33749e-06
2.50118e-05
7.99789e-06
2.23519e-05
6.58462e-06
1.94617e-05
5.07943e-06
1.63872e-05
3.47242e-06
1.32558e-05
1.9833e-06
1.00911e-05
1.22345e-06
6.89357e-06
1.12946e-06
3.7263e-06
1.09305e-06
6.79573e-07
1.03563e-06
-2.17795e-06
9.64719e-07
-4.79257e-06
8.79435e-07
-7.12149e-06
7.6428e-07
-9.12952e-06
5.95561e-07
-1.07841e-05
3.44236e-07
-1.206e-05
-1.88802e-08
-1.29429e-05
-5.24609e-07
-1.34335e-05
-1.20533e-06
-1.35486e-05
-2.09203e-06
-1.33189e-05
-3.20932e-06
-1.27856e-05
-4.5723e-06
-1.19991e-05
-6.1868e-06
-1.10175e-05
-8.04851e-06
-9.90208e-06
-1.01416e-05
-8.71333e-06
-1.24395e-05
-7.50758e-06
-1.49072e-05
-6.33419e-06
-1.75039e-05
-5.23321e-06
-2.01857e-05
-4.2332e-06
-2.29091e-05
-3.3496e-06
-2.56348e-05
-2.58434e-06
-2.83291e-05
-1.93048e-06
-3.09777e-05
-1.37637e-06
-3.35791e-05
-9.08002e-07
-3.61515e-05
-5.34659e-07
-3.87338e-05
-4.07774e-05
3.33291e-05
1.43605e-05
3.23452e-05
1.37703e-05
3.10615e-05
1.30374e-05
2.94806e-05
1.21769e-05
2.76131e-05
1.1205e-05
2.54765e-05
1.01345e-05
2.30897e-05
8.97134e-06
2.0463e-05
7.70613e-06
1.76222e-05
6.31325e-06
1.47065e-05
4.89897e-06
1.18519e-05
4.0781e-06
9.05127e-06
3.93007e-06
6.28118e-06
3.86313e-06
3.63836e-06
3.67846e-06
1.18518e-06
3.41791e-06
-1.03583e-06
3.10046e-06
-2.99126e-06
2.7197e-06
-4.65528e-06
2.25959e-06
-6.00715e-06
1.69611e-06
-7.03218e-06
1.00616e-06
-7.7255e-06
1.68707e-07
-8.09409e-06
-8.36754e-07
-8.15743e-06
-2.02869e-06
-7.9461e-06
-3.42065e-06
-7.49931e-06
-5.01909e-06
-6.86328e-06
-6.82283e-06
-6.0892e-06
-8.82258e-06
-5.23012e-06
-1.10007e-05
-4.33771e-06
-1.33319e-05
-3.4597e-06
-1.57852e-05
-2.63751e-06
-1.83261e-05
-1.90424e-06
-2.0919e-05
-1.28337e-06
-2.353e-05
-7.88216e-07
-2.61299e-05
-4.19485e-07
-2.86978e-05
-1.71983e-07
-3.12252e-05
-3.31505e-08
-3.37179e-05
1.67456e-08
-3.62014e-05
-9.19797e-10
-3.87161e-05
-4.07783e-05
3.27454e-05
1.48854e-05
3.19572e-05
1.45584e-05
3.09011e-05
1.40935e-05
2.95797e-05
1.34984e-05
2.8003e-05
1.27817e-05
2.61864e-05
1.1951e-05
2.41472e-05
1.10106e-05
2.18944e-05
9.95899e-06
1.94139e-05
8.79367e-06
1.67289e-05
7.58399e-06
1.4105e-05
6.70202e-06
1.16576e-05
6.37745e-06
9.32783e-06
6.19293e-06
7.12812e-06
5.87817e-06
5.09626e-06
5.44978e-06
3.26578e-06
4.93094e-06
1.66522e-06
4.32026e-06
3.1649e-07
3.60832e-06
-7.66834e-07
2.77944e-06
-1.57835e-06
1.81768e-06
-2.11961e-06
7.09963e-07
-2.40172e-06
-5.54647e-07
-2.44554e-06
-1.98487e-06
-2.2806e-06
-3.58558e-06
-1.9434e-06
-5.35629e-06
-1.47568e-06
-7.29055e-06
-9.22456e-07
-9.3758e-06
-3.29629e-07
-1.15935e-05
2.58524e-07
-1.392e-05
8.01473e-07
-1.63282e-05
1.26434e-06
-1.8789e-05
1.61944e-06
-2.12741e-05
1.84734e-06
-2.37579e-05
1.93761e-06
-2.62202e-05
1.88861e-06
-2.86488e-05
1.70587e-06
-3.10425e-05
1.4014e-06
-3.34135e-05
9.92467e-07
-3.57925e-05
4.98304e-07
-3.82219e-05
-4.028e-05
3.22039e-05
1.52253e-05
3.16352e-05
1.51272e-05
3.08335e-05
1.48952e-05
2.98008e-05
1.45311e-05
2.8545e-05
1.40375e-05
2.70785e-05
1.34176e-05
2.54144e-05
1.26747e-05
2.35597e-05
1.18137e-05
2.15025e-05
1.08509e-05
1.92304e-05
9.85611e-06
1.69067e-05
9.02572e-06
1.47714e-05
8.51279e-06
1.28428e-05
8.12149e-06
1.10626e-05
7.65838e-06
9.4326e-06
7.0798e-06
7.97356e-06
6.38999e-06
6.70544e-06
5.58839e-06
5.64377e-06
4.67001e-06
4.79714e-06
3.62607e-06
4.16692e-06
2.4479e-06
3.74701e-06
1.12987e-06
3.52356e-06
-3.31197e-07
3.47514e-06
-1.93645e-06
3.57363e-06
-3.68407e-06
3.7855e-06
-5.56817e-06
4.07336e-06
-7.5784e-06
4.39763e-06
-9.70007e-06
4.71858e-06
-1.19144e-05
4.99822e-06
-1.41997e-05
5.2021e-06
-1.6532e-05
5.30089e-06
-1.88878e-05
5.27151e-06
-2.12447e-05
5.09799e-06
-2.35843e-05
4.77193e-06
-2.58941e-05
4.29222e-06
-2.81691e-05
3.66429e-06
-3.04145e-05
2.89928e-06
-3.26484e-05
2.01333e-06
-3.49065e-05
1.02804e-06
-3.72366e-05
-3.92519e-05
3.17215e-05
1.5367e-05
3.13864e-05
1.54623e-05
3.08536e-05
1.54281e-05
3.01236e-05
1.5261e-05
2.92015e-05
1.49596e-05
2.8095e-05
1.45241e-05
2.68125e-05
1.39572e-05
2.53583e-05
1.32678e-05
2.37304e-05
1.24788e-05
2.19382e-05
1.16483e-05
2.00798e-05
1.08841e-05
1.83333e-05
1.02593e-05
1.67624e-05
9.69244e-06
1.53472e-05
9.07356e-06
1.40758e-05
8.35123e-06
1.29535e-05
7.51228e-06
1.19886e-05
6.5533e-06
1.11865e-05
5.47213e-06
1.05492e-05
4.26338e-06
1.00739e-05
2.92312e-06
9.75141e-06
1.4524e-06
9.56583e-06
-1.45615e-07
9.4957e-06
-1.86632e-06
9.51444e-06
-3.70282e-06
9.59143e-06
-5.64516e-06
9.69328e-06
-7.68025e-06
9.78528e-06
-9.79206e-06
9.83299e-06
-1.19622e-05
9.80392e-06
-1.41706e-05
9.66887e-06
-1.6397e-05
9.40325e-06
-1.86221e-05
8.98799e-06
-2.08294e-05
8.41014e-06
-2.30065e-05
7.66317e-06
-2.51471e-05
6.74678e-06
-2.72527e-05
5.66627e-06
-2.9334e-05
4.43195e-06
-3.14141e-05
3.05839e-06
-3.35329e-05
1.56433e-06
-3.57426e-05
-3.76876e-05
3.13014e-05
1.5304e-05
3.12057e-05
1.55579e-05
3.09468e-05
1.5687e-05
3.05235e-05
1.56844e-05
2.99376e-05
1.55455e-05
2.91932e-05
1.52684e-05
2.82951e-05
1.48554e-05
2.72474e-05
1.43155e-05
2.6056e-05
1.36702e-05
2.47432e-05
1.29611e-05
2.33795e-05
1.22477e-05
2.20732e-05
1.15656e-05
2.08851e-05
1.08805e-05
1.98246e-05
1.01341e-05
1.88863e-05
9.28952e-06
1.80703e-05
8.32826e-06
1.7378e-05
7.24568e-06
1.68086e-05
6.04148e-06
1.63577e-05
4.71427e-06
1.60171e-05
3.26373e-06
1.57744e-05
1.69516e-06
1.56124e-05
1.63762e-08
1.55098e-05
-1.76381e-06
1.54418e-05
-3.63478e-06
1.53803e-05
-5.58367e-06
1.52956e-05
-7.5955e-06
1.51571e-05
-9.65359e-06
1.49352e-05
-1.17402e-05
1.4602e-05
-1.38374e-05
1.41329e-05
-1.59279e-05
1.35075e-05
-1.79968e-05
1.27103e-05
-2.00322e-05
1.1731e-05
-2.20272e-05
1.05648e-05
-2.39809e-05
9.21235e-06
-2.59002e-05
7.67889e-06
-2.78005e-05
5.97384e-06
-2.97091e-05
4.10991e-06
-3.1669e-05
2.10243e-06
-3.37351e-05
-3.55852e-05
3.09362e-05
1.50353e-05
3.10793e-05
1.54148e-05
3.10919e-05
1.56744e-05
3.09714e-05
1.58049e-05
3.07174e-05
1.57995e-05
3.03312e-05
1.56546e-05
2.98155e-05
1.53711e-05
2.91746e-05
1.49563e-05
2.84183e-05
1.44265e-05
2.75702e-05
1.38092e-05
2.66804e-05
1.31376e-05
2.58153e-05
1.24308e-05
2.50221e-05
1.16737e-05
2.43175e-05
1.08386e-05
2.37035e-05
9.90347e-06
2.3178e-05
8.85381e-06
2.27387e-05
7.68497e-06
2.23814e-05
6.39877e-06
2.20981e-05
4.99762e-06
2.18766e-05
3.48519e-06
2.17018e-05
1.86998e-06
2.15552e-05
1.6293e-07
2.14159e-05
-1.62446e-06
2.12602e-05
-3.47909e-06
2.10626e-05
-5.38607e-06
2.07964e-05
-7.32929e-06
2.04348e-05
-9.29198e-06
1.9952e-05
-1.12574e-05
1.93244e-05
-1.32098e-05
1.85313e-05
-1.51349e-05
1.7556e-05
-1.70215e-05
1.6386e-05
-1.88622e-05
1.50136e-05
-2.06547e-05
1.34357e-05
-2.2403e-05
1.16537e-05
-2.41183e-05
9.67313e-06
-2.58199e-05
7.50251e-06
-2.75384e-05
5.1527e-06
-2.93192e-05
2.63585e-06
-3.12182e-05
-3.29493e-05
3.06105e-05
1.45651e-05
3.09859e-05
1.50395e-05
3.12615e-05
1.53988e-05
3.14337e-05
1.56326e-05
3.15006e-05
1.57326e-05
3.14615e-05
1.56937e-05
3.13176e-05
1.55151e-05
3.10728e-05
1.52011e-05
3.07365e-05
1.47628e-05
3.03285e-05
1.42172e-05
2.98824e-05
1.35837e-05
2.94398e-05
1.28733e-05
2.90329e-05
1.20806e-05
2.86776e-05
1.1194e-05
2.8378e-05
1.0203e-05
2.8132e-05
9.09981e-06
2.7934e-05
7.88296e-06
2.77766e-05
6.55616e-06
2.76494e-05
5.12489e-06
2.75381e-05
3.59645e-06
2.74256e-05
1.98251e-06
2.72925e-05
2.95988e-07
2.71182e-05
-1.45016e-06
2.68803e-05
-3.24113e-06
2.6555e-05
-5.06081e-06
2.61183e-05
-6.89257e-06
2.55464e-05
-8.72008e-06
2.48169e-05
-1.0528e-05
2.39098e-05
-1.23026e-05
2.28078e-05
-1.40329e-05
2.14973e-05
-1.5711e-05
1.99688e-05
-1.73336e-05
1.82168e-05
-1.89027e-05
1.62398e-05
-2.04261e-05
1.40403e-05
-2.19187e-05
1.16238e-05
-2.34035e-05
8.99854e-06
-2.49131e-05
6.17359e-06
-2.64942e-05
3.15819e-06
-2.82028e-05
-2.97911e-05
3.03029e-05
1.39025e-05
3.08991e-05
1.44433e-05
3.14238e-05
1.48741e-05
3.18728e-05
1.51836e-05
3.2243e-05
1.53624e-05
3.25325e-05
1.54043e-05
3.27409e-05
1.53066e-05
3.28707e-05
1.50712e-05
3.2929e-05
1.47045e-05
3.29293e-05
1.42169e-05
3.28932e-05
1.36198e-05
3.28456e-05
1.29209e-05
3.28058e-05
1.21203e-05
3.27853e-05
1.12145e-05
3.2787e-05
1.02014e-05
3.2808e-05
9.07875e-06
3.28405e-05
7.85042e-06
3.28746e-05
6.52206e-06
3.28978e-05
5.10171e-06
3.2894e-05
3.60028e-06
3.28449e-05
2.03166e-06
3.27303e-05
4.10538e-07
3.25294e-05
-1.24926e-06
3.22208e-05
-2.93257e-06
3.17824e-05
-4.62237e-06
3.11919e-05
-6.30206e-06
3.0428e-05
-7.95622e-06
2.94712e-05
-9.5712e-06
2.83044e-05
-1.11358e-05
2.69132e-05
-1.26418e-05
2.52871e-05
-1.40849e-05
2.34189e-05
-1.54654e-05
2.13052e-05
-1.6789e-05
1.89464e-05
-1.80672e-05
1.63458e-05
-1.93182e-05
1.35096e-05
-2.05673e-05
1.04455e-05
-2.1849e-05
7.16133e-06
-2.32101e-05
3.66381e-06
-2.47053e-05
-2.61273e-05
2.99874e-05
1.306e-05
3.07887e-05
1.3642e-05
3.1544e-05
1.41189e-05
3.22488e-05
1.44788e-05
3.28992e-05
1.4712e-05
3.34921e-05
1.48114e-05
3.40258e-05
1.47729e-05
3.45007e-05
1.45964e-05
3.49203e-05
1.42849e-05
3.52926e-05
1.38447e-05
3.56292e-05
1.32831e-05
3.59437e-05
1.26064e-05
3.62461e-05
1.18179e-05
3.65413e-05
1.09194e-05
3.68291e-05
9.91349e-06
3.71044e-05
8.80351e-06
3.73577e-05
7.59712e-06
3.75768e-05
6.30298e-06
3.77476e-05
4.93086e-06
3.78524e-05
3.49548e-06
3.78721e-05
2.01196e-06
3.7786e-05
4.9668e-07
3.75728e-05
-1.0361e-06
3.72112e-05
-2.57094e-06
3.66796e-05
-4.09077e-06
3.59572e-05
-5.57969e-06
3.50246e-05
-7.02368e-06
3.38646e-05
-8.41115e-06
3.24623e-05
-9.73348e-06
3.08061e-05
-1.09856e-05
2.88878e-05
-1.21666e-05
2.67027e-05
-1.32802e-05
2.42493e-05
-1.43356e-05
2.15297e-05
-1.53476e-05
1.85486e-05
-1.6337e-05
1.53126e-05
-1.73313e-05
1.18296e-05
-1.8366e-05
8.10668e-06
-1.94871e-05
4.14805e-06
-2.07466e-05
-2.19792e-05
2.96358e-05
1.20541e-05
3.06229e-05
1.2655e-05
3.15864e-05
1.31553e-05
3.25218e-05
1.35434e-05
3.34245e-05
1.38093e-05
3.42905e-05
1.39453e-05
3.51167e-05
1.39468e-05
3.59012e-05
1.38118e-05
3.66443e-05
1.35417e-05
3.73487e-05
1.31403e-05
3.80188e-05
1.2613e-05
3.86596e-05
1.19656e-05
3.92741e-05
1.12034e-05
3.98616e-05
1.03318e-05
4.04179e-05
9.35714e-06
4.09345e-05
8.28699e-06
4.14002e-05
7.13135e-06
4.1801e-05
5.9022e-06
4.21199e-05
4.61194e-06
4.23384e-05
3.27698e-06
4.24364e-05
1.91403e-06
4.23928e-05
5.4025e-07
4.21858e-05
-8.29151e-07
4.1793e-05
-2.17807e-06
4.11927e-05
-3.49048e-06
4.03648e-05
-4.75182e-06
3.92911e-05
-5.95e-06
3.79558e-05
-7.07588e-06
3.63461e-05
-8.1238e-06
3.44526e-05
-9.09199e-06
3.2269e-05
-9.983e-06
2.97929e-05
-1.08041e-05
2.70249e-05
-1.15677e-05
2.39688e-05
-1.22915e-05
2.06307e-05
-1.29989e-05
1.70183e-05
-1.37189e-05
1.31399e-05
-1.44876e-05
9.00217e-06
-1.53494e-05
4.60729e-06
-1.63518e-05
-1.73719e-05
2.92192e-05
1.09039e-05
3.03696e-05
1.15045e-05
3.15159e-05
1.2009e-05
3.26533e-05
1.2406e-05
3.3777e-05
1.26856e-05
3.4882e-05
1.28403e-05
3.59641e-05
1.28647e-05
3.70193e-05
1.27566e-05
3.80451e-05
1.2516e-05
3.90398e-05
1.21456e-05
4.00026e-05
1.16503e-05
4.09323e-05
1.10358e-05
4.18264e-05
1.03093e-05
4.26797e-05
9.47852e-06
4.34841e-05
8.55275e-06
4.42283e-05
7.54274e-06
4.48985e-05
6.46114e-06
4.54786e-05
5.32217e-06
4.59492e-05
4.14133e-06
4.62904e-05
2.93578e-06
4.64807e-05
1.72367e-06
4.64982e-05
5.22802e-07
4.63192e-05
-6.50153e-07
4.59203e-05
-1.77926e-06
4.52794e-05
-2.84957e-06
4.4376e-05
-3.84839e-06
4.31921e-05
-4.76611e-06
4.17128e-05
-5.59663e-06
3.99268e-05
-6.33773e-06
3.78261e-05
-6.99132e-06
3.54067e-05
-7.56364e-06
3.26682e-05
-8.06553e-06
2.96131e-05
-8.51264e-06
2.62472e-05
-8.92554e-06
2.25781e-05
-9.32978e-06
1.86151e-05
-9.7559e-06
1.43674e-05
-1.02399e-05
9.84177e-06
-1.08238e-05
5.03869e-06
-1.15487e-05
-1.23332e-05
2.87094e-05
9.63116e-06
2.99985e-05
1.02154e-05
3.12997e-05
1.07078e-05
3.26083e-05
1.10974e-05
3.39192e-05
1.13748e-05
3.52268e-05
1.15326e-05
3.65258e-05
1.15657e-05
3.78109e-05
1.14715e-05
3.9077e-05
1.12498e-05
4.03196e-05
1.09031e-05
4.15338e-05
1.0436e-05
4.27144e-05
9.85523e-06
4.38547e-05
9.16905e-06
4.49458e-05
8.38743e-06
4.59765e-05
7.52201e-06
4.69331e-05
6.58614e-06
4.77993e-05
5.59492e-06
4.85566e-05
4.56487e-06
4.91842e-05
3.51375e-06
4.96596e-05
2.46034e-06
4.99595e-05
1.42382e-06
5.00593e-05
4.22946e-07
4.9934e-05
-5.24825e-07
4.95583e-05
-1.40356e-06
4.89083e-05
-2.19958e-06
4.79624e-05
-2.90247e-06
4.6702e-05
-3.50572e-06
4.51124e-05
-4.00703e-06
4.3183e-05
-4.40833e-06
4.09074e-05
-4.71577e-06
3.82835e-05
-4.93969e-06
3.53127e-05
-5.09471e-06
3.19998e-05
-5.19977e-06
2.83525e-05
-5.27822e-06
2.43804e-05
-5.35768e-06
2.00944e-05
-5.46988e-06
1.55051e-05
-5.65055e-06
1.062e-05
-5.93869e-06
5.43914e-06
-6.36777e-06
-6.89407e-06
2.80805e-05
8.25926e-06
2.94819e-05
8.81411e-06
3.09086e-05
9.28108e-06
3.2356e-05
9.64996e-06
3.38188e-05
9.91195e-06
3.52913e-05
1.00601e-05
3.67673e-05
1.00897e-05
3.82405e-05
9.99828e-06
3.97044e-05
9.78586e-06
4.11524e-05
9.45514e-06
4.25771e-05
9.01128e-06
4.39706e-05
8.46179e-06
4.53232e-05
7.81639e-06
4.66238e-05
7.08689e-06
4.78587e-05
6.28711e-06
4.9012e-05
5.43278e-06
5.00656e-05
4.54133e-06
5.09988e-05
3.63168e-06
5.17888e-05
2.72376e-06
5.24109e-05
1.83825e-06
5.28389e-05
9.95781e-07
5.30456e-05
2.16257e-07
5.30028e-05
-4.82049e-07
5.26825e-05
-1.08325e-06
5.20579e-05
-1.57502e-06
5.11051e-05
-1.94966e-06
4.9804e-05
-2.20458e-06
4.81392e-05
-2.34229e-06
4.61008e-05
-2.36985e-06
4.36835e-05
-2.2985e-06
4.08871e-05
-2.14324e-06
3.77151e-05
-1.92275e-06
3.41747e-05
-1.6594e-06
3.02757e-05
-1.37922e-06
2.60298e-05
-1.11178e-06
2.14497e-05
-8.89795e-07
1.65475e-05
-7.48313e-07
1.1331e-05
-7.22142e-07
5.79996e-06
-8.36735e-07
-1.0941e-06
2.73103e-05
6.81315e-06
2.87961e-05
7.32829e-06
3.03177e-05
7.75942e-06
3.18707e-05
8.09705e-06
3.34495e-05
8.33308e-06
3.50485e-05
8.46117e-06
3.66613e-05
8.477e-06
3.8281e-05
8.37857e-06
3.99004e-05
8.16641e-06
4.15119e-05
7.84372e-06
4.31068e-05
7.4164e-06
4.46755e-05
6.89302e-06
4.62072e-05
6.28474e-06
4.76889e-05
5.6052e-06
4.91056e-05
4.87035e-06
5.04401e-05
4.09828e-06
5.16725e-05
3.30893e-06
5.27805e-05
2.52375e-06
5.3739e-05
1.7652e-06
5.45211e-05
1.05622e-06
5.50974e-05
4.19482e-07
5.5437e-05
-1.23445e-07
5.55081e-05
-5.5306e-07
5.5278e-05
-8.53223e-07
5.47159e-05
-1.0129e-06
5.37938e-05
-1.0276e-06
5.24891e-05
-8.99838e-07
5.07851e-05
-6.38361e-07
4.86721e-05
-2.56846e-07
4.61463e-05
2.27284e-07
4.32095e-05
7.93609e-07
3.98677e-05
1.41902e-06
3.61306e-05
2.07771e-06
3.20104e-05
2.74103e-06
2.75209e-05
3.3777e-06
2.26768e-05
3.95431e-06
1.74915e-05
4.43696e-06
1.19737e-05
4.79568e-06
6.12353e-06
5.01346e-06
5.02943e-06
2.63805e-05
5.31872e-06
2.79223e-05
5.7865e-06
2.95077e-05
6.17399e-06
3.11323e-05
6.47242e-06
3.27911e-05
6.67434e-06
3.44783e-05
6.77399e-06
3.61877e-05
6.76758e-06
3.79127e-05
6.65361e-06
3.9646e-05
6.43314e-06
4.13797e-05
6.11002e-06
4.31051e-05
5.691e-06
4.48123e-05
5.18582e-06
4.64899e-05
4.60714e-06
4.81246e-05
3.97048e-06
4.97009e-05
3.29403e-06
5.12008e-05
2.59841e-06
5.26034e-05
1.90634e-06
5.38849e-05
1.24224e-06
5.50185e-05
6.31604e-07
5.59744e-05
1.00322e-07
5.67201e-05
-3.26203e-07
5.72206e-05
-6.23928e-07
5.74387e-05
-7.71259e-07
5.73364e-05
-7.50925e-07
5.68762e-05
-5.52676e-07
5.60244e-05
-1.7579e-07
5.47541e-05
3.70464e-07
5.30469e-05
1.06883e-06
5.08931e-05
1.89692e-06
4.82909e-05
2.82952e-06
4.52446e-05
3.8399e-06
4.17634e-05
4.90019e-06
3.786e-05
5.98117e-06
3.3549e-05
7.05195e-06
2.88469e-05
8.07985e-06
2.377e-05
9.03117e-06
1.83336e-05
9.87336e-06
1.25486e-05
1.05807e-05
6.41878e-06
1.11433e-05
1.14482e-05
2.52784e-05
3.80251e-06
2.68472e-05
4.21774e-06
2.84649e-05
4.55626e-06
3.01274e-05
4.80993e-06
3.18299e-05
4.97185e-06
3.35671e-05
5.03675e-06
3.53335e-05
5.00125e-06
3.71228e-05
4.86424e-06
3.89287e-05
4.62725e-06
4.0744e-05
4.29474e-06
4.25607e-05
3.8743e-06
4.43697e-05
3.37682e-06
4.61603e-05
2.81655e-06
4.79198e-05
2.21099e-06
4.96331e-05
1.58078e-06
5.12821e-05
9.49366e-07
5.28457e-05
3.42711e-07
5.42992e-05
-2.11227e-07
5.5614e-05
-6.83138e-07
5.67576e-05
-1.04332e-06
5.76942e-05
-1.26282e-06
5.83845e-05
-1.31424e-06
5.87857e-05
-1.17243e-06
5.88518e-05
-8.17027e-07
5.85361e-05
-2.37017e-07
5.77961e-05
5.6416e-07
5.65988e-05
1.5678e-06
5.49232e-05
2.74445e-06
5.27603e-05