/*--------------------------------*- C++ -*----------------------------------*\
| =========                 |                                                 |
| \\      /  F ield         | OpenFOAM: The Open Source CFD Toolbox           |
|  \\    /   O peration     | Version:  5.0                                   |
|   \\  /    A nd           | Web:      www.OpenFOAM.org                      |
|    \\/     M anipulation  |                                                 |
\*---------------------------------------------------------------------------*/
FoamFile
{
    version     2.0;
    format      ascii;
    class       volScalarField;
    location    "0.35";
    object      alpha.water;
}
// * * * * * * * * * * * * * * * * * * * * * * * * * * * * * * * * * * * * * //

dimensions      [0 0 0 0 0 0 0];

internalField   nonuniform List<scalar> 
1915
(
-1.13438e-11
-6.06389e-12
-2.32994e-12
-5.79024e-13
-4.70682e-14
7.47837e-15
1.12773e-14
1.38323e-14
1.62714e-14
1.85605e-14
2.05783e-14
2.2711e-14
2.57515e-14
3.5971e-14
1.00218e-13
5.70761e-13
3.55642e-12
1.6641e-11
5.3977e-11
1.33489e-10
2.83428e-10
5.78581e-10
1.01173e-09
6.46837e-10
1.50823e-08
-1.11856e-18
-1.36386e-17
-8.46926e-17
-3.30521e-16
-9.36977e-16
-2.34838e-15
-6.4299e-15
-1.86786e-14
-4.51375e-14
-9.21081e-14
-1.64857e-13
-2.77116e-13
-4.85814e-13
-9.3869e-13
-1.86132e-12
-3.39143e-12
-5.30956e-12
-6.92842e-12
-7.39634e-12
-6.33552e-12
-4.24585e-12
-2.14536e-12
-7.67922e-13
-1.68513e-13
-9.91386e-15
1.40306e-15
1.81535e-15
2.21975e-15
2.61343e-15
3.03469e-15
3.49663e-15
4.08285e-15
5.51184e-15
1.29639e-14
6.70062e-14
4.84986e-13
3.27325e-12
1.62399e-11
5.56521e-11
1.40571e-10
3.10777e-10
6.36331e-10
1.24423e-09
2.03134e-09
5.37093e-09
-5.26977e-19
-5.88005e-18
-3.3838e-17
-1.24079e-16
-3.49734e-16
-9.58157e-16
-2.83512e-15
-7.85755e-15
-1.81249e-14
-3.57214e-14
-6.3316e-14
-1.10454e-13
-2.08054e-13
-4.19534e-13
-8.19664e-13
-1.42434e-12
-2.11028e-12
-2.61299e-12
-2.66309e-12
-2.19372e-12
-1.42393e-12
-7.00549e-13
-2.44292e-13
-5.21235e-14
-3.74689e-15
1.89875e-16
2.30697e-16
2.93825e-16
3.59036e-16
4.37828e-16
5.36821e-16
7.24416e-16
1.52015e-15
7.03081e-15
5.08097e-14
4.01005e-13
2.81719e-12
1.45728e-11
5.20419e-11
1.4081e-10
3.20095e-10
6.55957e-10
1.23542e-09
2.85072e-09
1.98487e-08
-1.98991e-19
-2.0605e-18
-1.10951e-17
-3.91016e-17
-1.13607e-16
-3.38036e-16
-1.02243e-15
-2.72191e-15
-6.04997e-15
-1.16323e-14
-2.07042e-14
-3.7744e-14
-7.48197e-14
-1.52681e-13
-2.90657e-13
-4.84636e-13
-6.87995e-13
-8.19462e-13
-8.08055e-13
-6.48308e-13
-4.12684e-13
-2.00422e-13
-6.94373e-14
-1.4944e-14
-1.29561e-15
2.13777e-17
2.36328e-17
3.35133e-17
4.38688e-17
5.76742e-17
7.9824e-17
1.53779e-16
6.37997e-16
4.52492e-15
3.62048e-14
2.93083e-13
2.14168e-12
1.16811e-11
4.4207e-11
1.24456e-10
2.91629e-10
5.97724e-10
1.03022e-09
2.18698e-09
3.69022e-08
-5.87307e-20
-5.69145e-19
-2.90024e-18
-1.0043e-17
-3.06412e-17
-9.67232e-17
-2.91939e-16
-7.50713e-16
-1.61554e-15
-3.0416e-15
-5.43891e-15
-1.02278e-14
-2.07976e-14
-4.23064e-14
-7.86178e-14
-1.27062e-13
-1.7492e-13
-2.02778e-13
-1.95584e-13
-1.54388e-13
-9.73114e-14
-4.7114e-14
-1.64044e-14
-3.60611e-15
-3.50344e-16
2.00764e-18
2.11634e-18
3.48157e-18
4.9719e-18
7.24815e-18
1.31893e-17
4.80105e-17
3.36591e-16
2.73065e-15
2.21709e-14
1.83434e-13
1.40503e-12
8.2766e-12
3.42802e-11
1.04441e-10
2.58261e-10
5.48302e-10
9.40652e-10
1.25148e-09
2.85937e-08
-1.28376e-20
-1.1718e-19
-5.71399e-19
-1.97845e-18
-6.36551e-18
-2.08663e-17
-6.22172e-17
-1.54824e-16
-3.21652e-16
-5.86286e-16
-1.02751e-15
-1.92452e-15
-3.91504e-15
-7.93685e-15
-1.45763e-14
-2.31784e-14
-3.13565e-14
-3.5775e-14
-3.40563e-14
-2.66493e-14
-1.67427e-14
-8.13078e-15
-2.8618e-15
-6.44608e-16
-6.7354e-17
1.59501e-19
1.80851e-19
3.42234e-19
5.31538e-19
9.49084e-19
2.97e-18
2.00024e-17
1.70672e-16
1.41807e-15
1.16443e-14
9.7776e-14
7.88203e-13
5.13759e-12
2.38568e-11
7.87636e-11
2.03585e-10
4.70331e-10
9.62119e-10
1.54498e-09
4.12369e-09
-1.86205e-21
-1.60903e-20
-7.57788e-20
-2.65416e-19
-8.97436e-19
-3.00816e-18
-8.80591e-18
-2.10832e-17
-4.14331e-17
-6.94857e-17
-1.08259e-16
-1.79779e-16
-3.43174e-16
-7.23457e-16
-1.38747e-15
-2.269e-15
-3.10721e-15
-3.55415e-15
-3.36796e-15
-2.62199e-15
-1.64401e-15
-8.00636e-16
-2.84361e-16
-6.52394e-17
-7.10777e-18
1.02386e-20
1.55729e-20
3.1729e-20
5.61434e-20
1.53074e-19
9.33103e-19
8.36377e-18
7.46311e-17
6.35987e-16
5.30449e-15
4.49441e-14
3.77232e-13
2.71966e-12
1.44474e-11
5.37529e-11
1.4869e-10
3.53729e-10
8.57281e-10
1.75229e-09
2.28324e-09
-1.35179e-22
-1.10993e-21
-5.08128e-21
-1.81155e-20
-6.39617e-20
-2.16687e-19
-6.16862e-19
-1.38831e-18
-2.40092e-18
-2.93034e-18
-1.41849e-18
4.118e-18
2.0959e-17
2.7162e-17
1.96181e-17
-3.17914e-18
-3.67528e-17
-6.24914e-17
-6.26725e-17
-4.72125e-17
-2.76564e-17
-1.23165e-17
-3.91793e-18
-7.73582e-19
-6.33249e-20
5.41403e-22
1.36698e-21
2.77728e-21
6.60831e-21
3.4776e-20
3.18061e-19
3.06507e-18
2.82483e-17
2.48245e-16
2.11113e-15
1.79857e-14
1.54482e-13
1.21577e-12
7.47401e-12
3.25698e-11
1.01684e-10
2.46794e-10
5.34956e-10
1.27604e-09
3.97235e-09
0
-1.80213e-45
-2.63674e-43
-3.35002e-41
-5.19903e-38
-6.6225e-35
-8.60531e-32
-6.88609e-30
-3.47697e-28
-1.50679e-26
-5.79894e-25
9.11422e-20
1.17965e-18
5.10054e-18
2.4129e-18
8.40196e-18
5.52391e-18
1.18233e-18
3.38028e-19
6.78916e-20
8.44477e-21
2.12257e-21
8.90965e-22
2.04436e-22
6.92284e-23
3.71059e-23
1.11019e-22
2.40023e-22
1.06879e-21
9.56387e-21
9.83628e-20
9.79892e-19
9.33118e-18
8.47113e-17
7.38657e-16
6.34556e-15
5.52094e-14
4.65627e-13
3.26384e-12
1.65748e-11
6.01349e-11
1.64023e-10
3.76191e-10
9.66203e-10
3.59473e-09
-9.14617e-43
-1.38018e-46
8.04555e-41
1.05392e-38
9.23234e-37
3.80381e-35
1.06894e-33
4.04743e-32
1.63333e-30
6.10412e-29
1.47267e-27
2.66446e-25
3.78999e-23
3.86316e-21
3.15777e-20
9.49634e-20
1.25442e-21
1.31719e-21
1.20393e-21
3.12007e-22
2.45121e-23
3.03071e-25
1.64448e-25
3.49057e-25
1.29647e-24
3.27335e-24
7.27634e-24
2.84262e-23
2.42041e-22
2.58123e-21
2.7198e-20
2.77049e-19
2.7113e-18
2.5406e-17
2.28262e-16
1.9955e-15
1.74612e-14
1.51938e-13
1.1768e-12
7.02038e-12
3.05587e-11
9.60915e-11
2.43777e-10
7.73263e-10
3.23445e-09
-6.17905e-42
-5.096e-47
4.47582e-43
3.62023e-42
-2.40499e-37
-2.63694e-35
-1.46788e-33
-6.44331e-32
-2.43909e-30
-8.45137e-29
4.65025e-27
3.5304e-25
7.39115e-25
6.91496e-25
8.04317e-25
6.28183e-25
1.92749e-25
4.17755e-26
1.47307e-26
9.30573e-27
6.88981e-27
6.22149e-27
7.74368e-27
2.34496e-26
6.90826e-26
1.76251e-25
6.64218e-25
5.56244e-24
6.13208e-23
6.60149e-22
6.9052e-21
7.04056e-20
6.9865e-19
6.71238e-18
6.20792e-17
5.54316e-16
4.87022e-15
4.27058e-14
3.53806e-13
2.45061e-12
1.29654e-11
4.65565e-11
1.3931e-10
5.91082e-10
2.42769e-09
-1.20038e-42
-2.56985e-44
-3.69307e-42
-3.58653e-40
-1.27293e-38
-1.5344e-37
-8.26048e-37
9.70943e-36
3.98263e-34
1.06928e-32
6.17962e-29
5.80606e-27
3.24927e-26
6.1537e-26
7.07417e-26
5.75632e-26
1.79727e-26
3.54942e-27
1.02988e-27
5.82064e-28
4.05596e-28
3.45318e-28
3.503e-28
8.50053e-28
2.86563e-27
1.28147e-26
1.26316e-25
1.3932e-24
1.50275e-23
1.58333e-22
1.62195e-21
1.62059e-20
1.58871e-19
1.5291e-18
1.43477e-17
1.30557e-16
1.15441e-15
1.00704e-14
8.61207e-14
6.60161e-13
4.0719e-12
1.7439e-11
6.73726e-11
3.42309e-10
1.37698e-09
-4.70238e-56
5.34137e-49
3.37717e-46
4.10417e-44
3.29925e-42
1.66091e-40
6.88466e-39
2.38871e-37
7.4837e-36
2.09278e-34
1.72653e-31
9.00186e-30
4.34853e-29
8.88972e-29
1.21605e-28
1.34055e-28
1.27617e-28
9.2485e-29
6.31586e-29
3.83142e-29
2.23513e-29
1.58764e-29
1.38735e-29
3.76738e-29
2.78998e-28
2.96096e-27
3.19113e-26
3.39308e-25
3.54715e-24
3.62799e-23
3.63794e-22
3.55214e-21
3.38462e-20
3.14383e-19
2.87925e-18
2.61748e-17
2.32023e-16
2.00489e-15
1.70826e-14
1.39363e-13
9.5824e-13
4.90179e-12
2.30425e-11
1.23248e-10
5.24368e-10
-3.11811e-58
-2.00775e-50
3.40903e-48
3.80326e-46
-2.18759e-43
-1.98114e-41
-8.48597e-40
-2.76796e-38
-7.97396e-37
-1.93224e-35
2.39333e-33
2.47738e-31
1.98166e-30
5.36679e-30
8.80119e-30
1.08234e-29
1.13424e-29
8.69981e-30
5.2128e-30
3.25294e-30
1.79682e-30
1.01618e-30
1.02113e-30
6.10379e-30
6.48074e-29
7.17087e-28
7.76784e-27
8.1896e-26
8.41207e-25
8.42813e-24
8.23979e-23
7.86302e-22
7.31983e-21
6.64091e-20
5.86134e-19
4.98557e-18
4.18166e-17
3.59024e-16
3.01376e-15
2.47079e-14
1.90873e-13
1.13323e-12
5.173e-12
2.38907e-11
1.06285e-10
-3.64948e-52
-4.64881e-50
-5.49847e-48
-4.22649e-46
-1.05529e-44
2.00271e-44
6.41161e-42
2.35812e-40
7.26724e-39
2.00369e-37
6.86727e-35
9.72282e-33
8.86428e-32
2.5534e-31
4.38242e-31
5.60899e-31
6.04532e-31
5.68921e-31
3.75347e-31
2.32532e-31
1.27031e-31
6.13249e-32
1.31102e-31
1.06812e-30
1.20908e-29
1.34897e-28
1.46331e-27
1.54292e-26
1.58321e-25
1.58213e-24
1.54032e-23
1.46107e-22
1.34966e-21
1.21281e-20
1.05849e-19
8.94713e-19
7.2937e-18
5.94951e-17
5.00296e-16
4.02718e-15
3.10024e-14
2.16561e-13
1.13247e-12
4.38785e-12
1.33814e-11
-1.91963e-63
2.28668e-53
5.04674e-51
4.17826e-49
2.55732e-47
9.77547e-46
3.06554e-44
1.06292e-42
3.37684e-41
9.67123e-40
2.84539e-37
1.05008e-34
2.05723e-33
8.22639e-33
1.72722e-32
2.52058e-32
2.92311e-32
2.98255e-32
2.10464e-32
1.18573e-32
6.32483e-33
2.6058e-33
1.41948e-32
1.51765e-31
1.75748e-30
1.97422e-29
2.15165e-28
2.27765e-27
2.34433e-26
2.34686e-25
2.28369e-24
2.1612e-23
1.99006e-22
1.77957e-21
1.53907e-20
1.28863e-19
1.03531e-18
8.44678e-18
7.25225e-17
5.85949e-16
4.50265e-15
3.13858e-14
1.81956e-13
8.60055e-13
4.84224e-12
-3.28183e-66
-8.77254e-57
1.98491e-53
1.35797e-51
-6.35631e-49
-5.18571e-47
-1.9009e-45
-5.93253e-44
-1.63641e-42
-4.145e-41
4.51799e-40
2.44285e-37
2.65324e-35
1.96472e-34
5.52934e-34
9.48676e-34
1.20061e-33
1.27441e-33
1.02165e-33
5.23463e-34
2.51186e-34
1.31611e-34
1.29719e-33
1.54885e-32
1.81067e-31
2.03716e-30
2.21433e-29
2.33664e-28
2.39504e-27
2.38517e-26
2.30781e-25
2.16872e-24
1.97808e-23
1.74961e-22
1.49931e-21
1.24434e-20
1.07288e-19
9.8634e-19
8.47988e-18
6.92245e-17
5.39456e-16
3.90655e-15
2.34863e-14
1.03712e-13
5.23792e-13
-1.16473e-58
-1.6921e-56
-1.96909e-54
-1.52603e-52
-3.6418e-51
6.43911e-51
8.78324e-49
3.17982e-47
1.01674e-45
2.89904e-44
8.84408e-43
2.27529e-40
1.21816e-37
2.86061e-36
1.23842e-35
2.68589e-35
3.9038e-35
4.40281e-35
4.25766e-35
2.43018e-35
1.05921e-35
7.2382e-36
8.35173e-35
1.01382e-33
1.18951e-32
1.35186e-31
1.48908e-30
1.59091e-29
1.64956e-28
1.6604e-27
1.6225e-26
1.53879e-25
1.41526e-24
1.26068e-23
1.08736e-22
9.84094e-22
9.7475e-21
9.01338e-20
7.82218e-19
6.43824e-18
5.066e-17
3.75308e-16
2.36282e-15
1.05994e-14
4.65254e-14
-1.56208e-72
1.08999e-60
1.45784e-58
1.30589e-56
8.57599e-55
2.43177e-53
4.76428e-52
2.08418e-50
7.79394e-49
2.4353e-47
2.83414e-45
8.71361e-44
4.24516e-41
8.63831e-39
1.04299e-37
3.742e-37
7.44237e-37
1.02246e-36
1.1195e-36
9.94076e-37
4.51406e-37
3.57144e-37
4.38194e-36
5.41519e-35
6.46291e-34
7.46605e-33
8.35198e-32
9.05485e-31
9.51979e-30
9.70899e-29
9.60599e-28
9.21847e-27
8.56185e-26
7.66556e-25
7.13962e-24
7.39913e-23
7.36763e-22
6.81099e-21
5.92442e-20
4.88675e-19
3.8591e-18
2.89541e-17
1.87662e-16
8.49141e-16
3.45751e-15
-3.48864e-76
-1.33758e-63
-8.67606e-63
-5.75697e-60
-1.45026e-56
-1.05912e-54
-3.80147e-53
-1.22038e-51
-3.39341e-50
-8.72047e-49
2.71124e-48
1.05666e-46
2.20221e-45
4.56794e-42
5.24496e-40
3.97204e-39
1.13156e-38
1.9115e-38
2.35439e-38
2.37723e-38
1.44171e-38
1.54797e-38
1.95983e-37
2.47586e-36
3.01798e-35
3.5586e-34
4.06038e-33
4.48688e-32
4.80495e-31
4.98846e-30
5.02108e-29
4.89841e-28
4.59059e-27
4.32481e-26
4.58565e-25
4.96316e-24
4.90903e-23
4.54825e-22
3.97102e-21
3.28892e-20
2.60821e-19
1.97575e-18
1.31509e-17
6.13346e-17
2.44489e-16
-2.24302e-67
-3.64932e-65
-4.51834e-63
-3.66321e-61
-8.01205e-60
3.29474e-59
1.65258e-57
6.28183e-56
2.18574e-54
6.68914e-53
2.31812e-51
9.7592e-50
2.11537e-48
7.55273e-47
1.82989e-43
1.17573e-41
7.33092e-41
1.90088e-40
3.03662e-40
3.43067e-40
2.39434e-40
5.71008e-40
7.314e-39
9.48196e-38
1.18534e-36
1.43255e-35
1.6743e-34
1.89405e-33
2.07529e-32
2.20329e-31
2.26629e-30
2.25409e-29
2.16402e-28
2.2576e-27
2.72318e-26
2.92423e-25
2.91777e-24
2.73202e-23
2.41421e-22
2.02465e-21
1.62463e-20
1.24774e-19
8.55737e-19
4.26536e-18
1.85267e-17
-4.48028e-81
1.71014e-70
2.34959e-68
2.41462e-66
1.6472e-64
-1.11292e-62
-1.49096e-60
-5.10986e-59
-1.74686e-57
-5.16624e-56
2.72458e-55
3.42087e-53
8.21969e-52
1.69078e-50
1.49785e-47
7.74244e-45
1.76142e-43
8.33906e-43
1.85548e-42
2.34619e-42
1.94569e-42
1.61321e-41
2.20645e-40
2.94521e-39
3.79267e-38
4.71628e-37
5.6684e-36
6.59077e-35
7.4189e-34
8.08792e-33
8.53049e-32
8.60399e-31
9.02415e-30
1.12669e-28
1.35914e-27
1.48307e-26
1.50633e-25
1.43765e-24
1.29654e-23
1.11055e-22
9.09897e-22
7.13898e-21
5.07237e-20
2.73607e-19
1.32752e-18
-2.32391e-83
1.22273e-73
3.71615e-71
2.92217e-69
-1.5957e-66
-1.13398e-64
-3.98425e-63
-1.25281e-61
-3.22388e-60
-7.56098e-59
2.16783e-57
6.57511e-56
1.64958e-54
3.82975e-53
7.7019e-52
4.04215e-50
3.36423e-47
1.34914e-45
5.87291e-45
8.61743e-45
2.82719e-44
3.6772e-43
5.25749e-42
7.25563e-41
9.65605e-40
1.24001e-38
1.53832e-37
1.8454e-36
2.14234e-35
2.4074e-34
2.60755e-33
2.72184e-32
3.20919e-31
4.61473e-30
5.63657e-29
6.30058e-28
6.56111e-27
6.42648e-26
5.95439e-25
5.24587e-24
4.42498e-23
3.57816e-22
2.64403e-21
1.5283e-20
8.08999e-20
-4.47374e-77
-6.94143e-75
-7.13221e-73
-4.20153e-71
2.05671e-69
2.55356e-67
1.32752e-65
5.89358e-64
2.29019e-62
7.90053e-61
2.63907e-59
7.60919e-58
1.99164e-56
4.82394e-55
1.08835e-53
2.30016e-52
4.56137e-51
1.0347e-49
2.37877e-48
2.9825e-47
4.29424e-46
6.59123e-45
9.81905e-44
1.40721e-42
1.94229e-41
2.58549e-40
3.32337e-39
4.12924e-38
4.96322e-37
5.76951e-36
6.37282e-35
7.24162e-34
1.04325e-32
1.51952e-31
1.91198e-30
2.20238e-29
2.36494e-28
2.39059e-27
2.28791e-26
2.08457e-25
1.82353e-24
1.53587e-23
1.18512e-22
7.10998e-22
3.83629e-21
-2.66365e-88
8.74759e-78
2.93034e-75
3.33663e-73
2.75492e-71
1.67547e-69
8.72577e-68
4.14574e-66
1.70373e-64
6.21409e-63
2.33288e-61
7.00722e-60
1.91695e-58
4.85214e-57
1.1438e-55
2.52525e-54
5.24698e-53
1.03041e-51
1.9199e-50
3.40711e-49
5.76394e-48
9.33265e-47
1.44974e-45
2.16424e-44
3.11009e-43
4.30857e-42
5.76152e-41
7.44477e-40
9.30313e-39
1.12206e-37
1.28137e-36
1.59714e-35
2.7122e-34
4.05738e-33
5.29041e-32
6.31437e-31
7.02875e-30
7.37029e-29
7.32145e-28
6.93017e-27
6.32849e-26
5.62368e-25
4.57883e-24
2.7275e-23
1.28516e-22
-5.64142e-91
3.64027e-80
1.27012e-77
1.41506e-75
-1.27748e-74
-5.85663e-73
1.40559e-70
1.2424e-68
7.34097e-67
3.30164e-65
1.56865e-63
4.90654e-62
1.40744e-60
3.73545e-59
9.23252e-58
2.13689e-56
4.65396e-55
9.57784e-54
1.86946e-52
3.47194e-51
6.15286e-50
1.04309e-48
1.69537e-47
2.64702e-46
3.97685e-45
5.75781e-44
8.04409e-43
1.08563e-41
1.41653e-40
1.78069e-39
2.12156e-38
2.90148e-37
5.67041e-36
8.82703e-35
1.201e-33
1.49446e-32
1.73433e-31
1.89697e-30
1.96654e-29
1.94215e-28
1.85954e-27
1.77257e-26
1.56095e-25
8.84884e-25
2.97814e-24
-2.59095e-84
-2.63503e-82
-1.87704e-80
-6.92708e-79
4.18552e-76
3.86148e-74
2.30848e-72
1.18095e-70
5.28373e-69
2.09991e-67
7.89272e-66
2.59465e-64
7.83063e-63
2.1869e-61
5.68796e-60
1.38537e-58
3.17484e-57
6.87425e-56
1.41141e-54
2.75669e-53
5.13633e-52
9.15224e-51
1.56302e-49
2.56334e-48
4.04384e-47
6.14587e-46
9.0105e-45
1.27583e-43
1.74618e-42
2.30017e-41
2.87125e-40
4.27252e-39
9.5469e-38
1.56812e-36
2.24462e-35
2.932e-34
3.56932e-33
4.09591e-32
4.45681e-31
4.61393e-30
4.64034e-29
4.86817e-28
4.95754e-27
2.43007e-26
5.73134e-26
-9.85693e-97
6.41608e-85
1.23605e-82
1.57295e-80
1.49255e-78
1.09612e-76
6.85496e-75
3.77804e-73
1.78991e-71
7.71846e-70
2.99597e-68
1.03924e-66
3.31204e-65
9.77054e-64
2.68487e-62
6.9097e-61
1.67324e-59
3.82812e-58
8.30406e-57
1.7133e-55
3.37147e-54
6.34317e-53
1.14351e-51
1.97904e-50
3.29379e-49
5.27982e-48
8.16226e-47
1.2184e-45
1.75777e-44
2.44019e-43
3.20328e-42
5.09707e-41
1.28762e-39
2.26768e-38
3.44585e-37
4.75953e-36
6.11705e-35
7.40753e-34
8.50912e-33
9.30111e-32
9.84556e-31
1.11205e-29
1.54387e-28
5.70439e-28
5.46576e-28
-7.66433e-100
1.02369e-87
2.10115e-85
2.76959e-83
1.02649e-81
1.04766e-79
1.04917e-77
7.43942e-76
4.33009e-74
2.13032e-72
8.60517e-71
3.16336e-69
1.06906e-67
3.34579e-66
9.75718e-65
2.66554e-63
6.85278e-62
1.66457e-60
3.83356e-59
8.39654e-58
1.75378e-56
3.50162e-55
6.6975e-54
1.22952e-52
2.17008e-51
3.68805e-50
6.04353e-49
9.56073e-48
1.46171e-46
2.15156e-45
2.9821e-44
4.9625e-43
1.39466e-41
2.68945e-40
4.38631e-39
6.46049e-38
8.82893e-37
1.13552e-35
1.38521e-34
1.60876e-33
1.80669e-32
2.15288e-31
3.15756e-30
1.267e-29
1.24744e-29
-8.48509e-93
-2.17735e-91
3.72184e-89
1.33373e-86
4.07907e-84
3.97261e-82
2.79186e-80
1.68564e-78
9.04024e-77
4.32185e-75
1.85454e-73
7.25872e-72
2.61385e-70
8.72189e-69
2.71321e-67
7.90942e-66
2.17037e-64
5.62772e-63
1.38362e-61
3.23507e-60
7.21248e-59
1.53688e-57
3.13666e-56
6.14303e-55
1.15644e-53
2.0958e-52
3.66155e-51
6.17464e-50
1.00619e-48
1.58218e-47
2.32797e-46
3.91557e-45
1.20229e-43
2.62147e-42
4.65714e-41
7.39137e-40
1.08326e-38
1.49083e-37
1.9445e-36
2.41488e-35
2.89596e-34
3.66211e-33
5.63565e-32
2.48977e-31
2.5565e-31
-1.25665e-106
1.27782e-93
2.86369e-91
4.36862e-89
4.97152e-87
4.38118e-85
3.32727e-83
2.16355e-81
1.24522e-79
6.33151e-78
2.90528e-76
1.21736e-74
4.69746e-73
1.68097e-71
5.61136e-70
1.75619e-68
5.17541e-67
1.44152e-65
3.80737e-64
9.56353e-63
2.29044e-61
5.24233e-60
1.14903e-58
2.41627e-57
4.88311e-56
9.49837e-55
1.78077e-53
3.22199e-52
5.63262e-51
9.51867e-50
1.50527e-48
2.55073e-47
7.9294e-46
2.07525e-44
4.10336e-43
7.11387e-42
1.12984e-40
1.67863e-39
2.35953e-38
3.15647e-37
4.07123e-36
5.49972e-35
8.91692e-34
4.35524e-33
4.78172e-33
-2.36217e-110
6.92364e-97
1.69439e-94
2.71279e-92
2.12031e-90
2.35867e-88
2.2935e-86
1.80852e-84
1.18192e-82
6.45042e-81
3.18528e-79
1.43833e-77
5.98808e-76
2.31411e-74
8.34879e-73
2.82557e-71
9.00815e-70
2.71508e-68
7.76103e-67
2.10991e-65
5.46887e-64
1.35454e-62
3.21234e-61
7.30766e-60
1.5973e-58
3.35974e-57
6.80994e-56
1.33187e-54
2.51642e-53
4.59801e-52
7.97761e-51
1.36671e-49
3.55709e-48
1.28572e-46
2.92973e-45
5.65325e-44
9.85841e-43
1.5979e-41
2.4426e-40
3.54876e-39
4.96213e-38
7.21764e-37
1.23641e-35
6.70978e-35
8.02901e-35
-1.09357e-102
2.41046e-101
2.0598e-98
6.16369e-96
1.49326e-93
1.72653e-91
1.50304e-89
1.11646e-87
7.3479e-86
4.34111e-84
2.32513e-82
1.14071e-80
5.16688e-79
2.17491e-77
8.55415e-76
3.15822e-74
1.0989e-72
3.61591e-71
1.1286e-69
3.35035e-68
9.48226e-67
2.56416e-65
6.63809e-64
1.6481e-62
3.93078e-61
9.01956e-60
1.99394e-58
4.25233e-57
8.75912e-56
1.74468e-54
3.36117e-53
6.03917e-52
1.23001e-50
5.75212e-49
1.63753e-47
3.6215e-46
7.06007e-45
1.26522e-43
2.12661e-42
3.3882e-41
5.18321e-40
8.18681e-39
1.48828e-37
9.0177e-37
1.18765e-36
-1.13299e-118
5.68992e-104
1.59425e-101
3.0626e-99
4.4057e-97
4.90988e-95
4.74431e-93
3.91624e-91
2.81128e-89
1.81529e-87
1.06503e-85
5.73522e-84
2.85618e-82
1.32357e-80
5.73675e-79
2.33576e-77
8.96715e-76
3.25657e-74
1.122e-72
3.67679e-71
1.14865e-69
3.42811e-68
9.79273e-67
2.68222e-65
7.05549e-64
1.78507e-62
4.34994e-61
1.02231e-59
2.32001e-58
5.08998e-57
1.0808e-55
2.17553e-54
4.36443e-53
1.48238e-51
6.74709e-50
1.80722e-48
4.04914e-47
8.17152e-46
1.5317e-44
2.70801e-43
4.58171e-42
7.94346e-41
1.53526e-39
1.04533e-38
1.54747e-38
9.915e-123
5.42367e-108
1.75589e-105
3.6659e-103
3.90176e-101
5.78943e-99
7.19605e-97
7.27188e-95
6.05805e-93
4.32435e-91
2.81451e-89
1.68557e-87
9.35391e-86
4.83741e-84
2.34241e-82
1.06632e-80
4.57927e-79
1.86084e-77
7.17461e-76
2.63101e-74
9.1969e-73
3.07063e-71
9.81041e-70
3.00444e-68
8.83375e-67
2.49734e-65
6.7977e-64
1.78389e-62
4.51892e-61
1.10631e-59
2.62051e-58
6.01121e-57
1.29139e-55
3.00079e-54
1.7302e-52
6.65018e-51
1.80312e-49
4.21673e-48
8.99172e-47
1.79191e-45
3.3987e-44
6.5556e-43
1.3561e-41
1.04306e-40
1.78184e-40
-1.5744e-114
-2.11459e-112
-2.28721e-110
4.75584e-108
3.57554e-105
5.89281e-103
7.06228e-101
7.21187e-99
6.38585e-97
5.10085e-95
3.74499e-93
2.53768e-91
1.59708e-89
9.38244e-88
5.16707e-86
2.67723e-84
1.30922e-82
6.05967e-81
2.66126e-79
1.11154e-77
4.42464e-76
1.68184e-74
6.11543e-73
2.13073e-71
7.1247e-70
2.28968e-68
7.08192e-67
2.11084e-65
6.07052e-64
1.68644e-62
4.53091e-61
1.17855e-59
2.96905e-58
7.00546e-57
1.90308e-55
1.54278e-53
5.84143e-52
1.67101e-50
4.18434e-49
9.61475e-48
2.08191e-46
4.54311e-45
1.02126e-43
8.90676e-43
1.79267e-42
3.99249e-132
2.43969e-117
1.15287e-114
3.6685e-112
8.19407e-110
1.332e-107
1.96018e-105
2.48434e-103
2.58751e-101
2.37364e-99
2.01052e-97
1.57799e-95
1.15336e-93
7.8836e-92
5.05775e-90
3.05517e-88
1.74254e-86
9.40829e-85
4.81984e-83
2.34793e-81
1.08977e-79
4.82826e-78
2.04553e-76
8.30017e-75
3.23069e-73
1.20796e-71
4.34457e-70
1.50498e-68
5.02721e-67
1.6212e-65
5.0529e-64
1.52371e-62
4.45015e-61
1.25695e-59
3.34688e-58
1.10301e-56
1.14274e-54
4.64692e-53
1.45389e-51
3.99826e-50
1.01543e-48
2.56388e-47
6.40082e-46
6.34801e-45
1.51703e-44
-2.14748e-137
-4.27984e-122
-1.36501e-119
-2.44249e-117
-9.53384e-115
-6.76728e-113
2.7343e-111
1.55462e-108
2.83804e-106
3.08483e-104
3.11435e-102
2.92742e-100
2.57038e-98
2.11488e-96
1.63529e-94
1.19143e-92
8.19909e-91
5.34171e-89
3.30172e-87
1.94007e-85
1.08576e-83
5.79775e-82
2.95885e-80
1.44547e-78
6.7696e-77
3.04364e-75
1.31544e-73
5.4719e-72
2.19332e-70
8.48092e-69
3.16678e-67
1.14304e-65
3.99203e-64
1.35026e-62
4.41949e-61
1.36392e-59
5.13321e-58
7.06448e-56
3.33195e-54
1.18478e-52
3.6972e-51
1.11896e-49
3.17938e-48
3.59531e-47
1.05918e-46
-9.22805e-130
-8.07394e-127
-2.44287e-124
-4.60666e-122
-3.53372e-120
-2.71667e-118
-1.69708e-116
5.25862e-115
3.35286e-112
5.98391e-110
7.59801e-108
9.01293e-106
1.00217e-103
1.04651e-101
1.02829e-99
9.52645e-98
8.33803e-96
6.90826e-94
5.42848e-92
4.05317e-90
2.88063e-88
1.95204e-86
1.26329e-84
7.81972e-83
4.63645e-81
2.63683e-79
1.44026e-77
7.56466e-76
3.82492e-74
1.8638e-72
8.76089e-71
3.97619e-69
1.74389e-67
7.39682e-66
3.03635e-64
1.2067e-62
4.51631e-61
1.90822e-59
3.49586e-57
2.13408e-55
9.10548e-54
3.52508e-52
1.18548e-50
1.52909e-49
5.95599e-49
-2.37321e-146
-1.84735e-133
-5.02358e-131
-9.47641e-129
-1.51494e-126
-2.37189e-124
-2.8499e-122
-2.15183e-120
-8.76435e-119
2.31624e-117
5.33331e-115
9.55431e-113
1.58348e-110
2.43916e-108
3.50246e-106
4.70227e-104
5.91972e-102
7.00758e-100
7.82107e-98
8.2508e-96
8.24699e-94
7.8278e-92
7.07037e-90
6.08909e-88
5.00912e-86
3.94277e-84
2.97402e-82
2.15283e-80
1.49748e-78
1.00208e-76
6.45795e-75
4.01171e-73
2.40407e-71
1.39068e-69
7.76928e-68
4.19324e-66
2.18673e-64
1.07648e-62
5.53554e-61
1.16286e-58
1.19417e-56
7.04064e-55
3.04194e-53
4.40159e-52
2.57433e-51
2.30077e-147
-5.04565e-141
-8.61058e-139
-1.51693e-136
-4.11652e-134
-6.77114e-132
-9.14396e-130
-9.90681e-128
-2.36823e-126
-1.79769e-124
-2.20486e-122
-4.17614e-120
-7.47573e-118
-1.25621e-115
-1.97464e-113
-2.89684e-111
-3.95697e-109
-5.01502e-107
-5.85914e-105
-6.22958e-103
-5.86178e-101
-4.53993e-99
-2.14797e-97
1.56287e-95
6.25909e-93
1.16542e-90
1.73332e-88
2.28218e-86
2.76492e-84
3.14096e-82
3.38121e-80
3.47129e-78
3.41255e-76
3.22071e-74
2.92267e-72
2.55204e-70
2.14437e-68
1.73276e-66
1.34232e-64
9.79527e-63
9.83504e-61
5.95939e-58
4.34043e-56
6.10616e-55
7.96549e-54
1.09457e-147
2.23101e-147
2.2572e-147
-1.27591e-147
-3.47812e-145
-5.19984e-143
-9.90636e-141
-1.3037e-138
-8.5336e-137
-7.43812e-135
-1.37794e-132
-4.13106e-130
-1.20169e-127
-3.33954e-125
-8.79934e-123
-2.19173e-120
-5.15867e-118
-1.14901e-115
-2.4066e-113
-4.66221e-111
2.53425e-109
-1.4901e-106
-2.42881e-104
-3.78573e-102
-5.60659e-100
-7.90181e-98
-1.06087e-95
-1.358e-93
-1.65826e-91
-1.9308e-89
-2.13768e-87
-2.22934e-85
-2.12568e-83
-1.66258e-81
-4.06597e-80
3.06869e-77
1.1004e-74
2.8628e-72
6.61224e-70
1.41509e-67
2.77921e-65
1.77333e-62
9.7275e-60
1.2721e-58
1.22583e-56
6.01167e-167
2.18468e-165
1.76526e-163
2.87765e-161
7.67734e-159
2.86131e-156
1.247e-153
4.08346e-152
2.44673e-148
2.27363e-145
1.32497e-142
5.62874e-145
3.39085e-144
-9.53932e-149
-1.44873e-142
5.13011e-137
-6.45946e-136
-4.63986e-132
-1.2484e-128
-1.41096e-126
-3.17703e-124
-4.44556e-121
-1.22446e-118
-3.13816e-116
-8.85682e-114
-6.56875e-111
-2.52998e-108
-1.04169e-105
2.83639e-102
-3.36492e-100
-1.12715e-97
1.10506e-94
3.99442e-92
-3.32063e-90
-9.21195e-88
-2.48361e-85
-6.40834e-83
-1.57998e-80
-3.71389e-78
-8.29511e-76
-1.75147e-73
-3.46855e-71
-6.36447e-69
-1.06141e-66
-4.96137e-63
)
;

boundaryField
{
    leftWall
    {
        type            zeroGradient;
    }
    rightWall
    {
        type            zeroGradient;
    }
    lowerWall
    {
        type            zeroGradient;
    }
    atmosphere
    {
        type            inletOutlet;
        inletValue      uniform 0;
        value           uniform 0;
    }
    defaultFaces
    {
        type            empty;
    }
    procBoundary2to0
    {
        type            processor;
        value           nonuniform List<scalar> 
46
(
-2.72435e-11
-1.60029e-11
-7.02923e-12
-2.22457e-12
-3.91643e-13
2.06141e-14
5.63466e-14
6.96231e-14
8.40663e-14
9.68304e-14
1.05559e-13
1.138e-13
1.22012e-13
1.3768e-13
2.16116e-13
7.57379e-13
3.94252e-12
1.68555e-11
5.11868e-11
1.19636e-10
2.43189e-10
5.14747e-10
5.74056e-10
6.7311e-10
1.71371e-08
-2.09041e-18
-2.71589e-17
-1.82523e-16
-7.68193e-16
-2.27569e-15
-5.43968e-15
-1.29489e-14
-3.89628e-14
-9.84451e-14
-2.08044e-13
-3.79968e-13
-6.29648e-13
-1.0367e-12
-1.8641e-12
-3.61988e-12
-6.79848e-12
-1.12274e-11
-1.55517e-11
-1.76338e-11
-1.60115e-11
-1.60115e-11
)
;
    }
    procBoundary2to3
    {
        type            processor;
        value           nonuniform List<scalar> 
43
(
1.93101e-08
1.87673e-08
6.33348e-08
1.09077e-07
1.11758e-07
5.91916e-08
2.92311e-08
1.81349e-08
1.62043e-08
1.48014e-08
1.0992e-08
6.08707e-09
2.40339e-09
4.5066e-10
8.98281e-11
2.76214e-11
7.67544e-12
7.58993e-13
6.26439e-14
4.56242e-15
3.12979e-16
1.99581e-17
1.14931e-18
5.86483e-20
2.61736e-21
1.01396e-22
3.38061e-24
9.83087e-26
2.51374e-27
5.79378e-29
1.21096e-30
2.27574e-32
3.82252e-34
5.72629e-36
7.68404e-38
9.20855e-40
9.70408e-42
8.65797e-44
6.53538e-46
4.07875e-48
2.06379e-50
8.28829e-53
2.17768e-55
)
;
    }
}


// ************************************************************************* //
