/*--------------------------------*- C++ -*----------------------------------*\
| =========                 |                                                 |
| \\      /  F ield         | OpenFOAM: The Open Source CFD Toolbox           |
|  \\    /   O peration     | Version:  5.0                                   |
|   \\  /    A nd           | Web:      www.OpenFOAM.org                      |
|    \\/     M anipulation  |                                                 |
\*---------------------------------------------------------------------------*/
FoamFile
{
    version     2.0;
    format      ascii;
    class       surfaceScalarField;
    location    "0.35";
    object      alphaPhi10;
}
// * * * * * * * * * * * * * * * * * * * * * * * * * * * * * * * * * * * * * //

dimensions      [0 3 -1 0 0 0 0];

internalField   nonuniform List<scalar> 
3742
(
-3.77192e-17
2.73518e-16
-1.90097e-17
1.34866e-16
-6.85664e-18
4.70336e-17
-1.6014e-18
1.00426e-17
-1.23428e-19
5.74374e-19
2.91439e-20
-1.42395e-19
3.36975e-20
-1.82065e-19
4.09105e-20
-2.16061e-19
5.09124e-20
-2.4745e-19
6.41153e-20
-2.79915e-19
8.17324e-20
-3.14897e-19
1.0754e-19
-3.58202e-19
1.51718e-19
-4.531e-19
2.91572e-19
-8.9531e-19
1.23203e-18
-3.96067e-18
9.36503e-18
-2.75303e-17
7.00818e-17
-1.86495e-16
3.75719e-16
-9.3436e-16
1.37884e-15
-3.27035e-15
3.93743e-15
-8.66584e-15
9.97826e-15
-1.94966e-14
2.32775e-14
-4.08499e-14
4.79015e-14
-8.01986e-14
1.2082e-13
-1.2815e-13
-4.3476e-13
8.17055e-25
4.27983e-23
1.86849e-23
4.8982e-22
9.6887e-23
2.80122e-21
2.84682e-22
1.01643e-20
6.21101e-22
2.83226e-20
1.20118e-21
7.6695e-20
1.54802e-21
2.24321e-19
-6.58393e-22
6.14631e-19
-7.02995e-21
1.40179e-18
-2.46265e-20
2.73169e-18
-5.93102e-20
4.78694e-18
-1.1746e-19
8.25349e-18
-2.19652e-19
1.53576e-17
-4.11982e-19
3.05698e-17
-7.08321e-19
5.89009e-17
-9.35433e-19
1.00821e-16
-6.67955e-19
1.46939e-16
4.88549e-19
1.787e-16
1.86248e-18
1.78585e-16
2.33163e-18
1.44003e-16
1.76182e-18
9.13425e-17
8.42595e-19
4.38461e-17
2.29665e-19
1.48975e-17
1.58817e-20
3.09385e-18
-2.82262e-21
2.16348e-19
-3.27093e-21
-2.00059e-20
-4.21413e-21
-2.38166e-20
-4.91535e-21
-2.93015e-20
-5.27169e-21
-3.47663e-20
-5.08137e-21
-4.12768e-20
-4.07242e-21
-4.93358e-20
-2.06824e-21
-6.35942e-20
2.25075e-21
-1.17171e-19
2.60254e-20
-4.59197e-19
2.91812e-19
-3.08013e-18
3.39388e-18
-2.40425e-17
3.20586e-17
-1.70992e-16
2.0472e-16
-9.0789e-16
8.62316e-16
-3.33436e-15
2.69197e-15
-9.09137e-15
7.45466e-15
-2.15343e-14
1.9332e-14
-4.5727e-14
5.00636e-14
-8.8332e-14
1.60752e-13
-2.02312e-13
-5.83441e-13
2.06728e-24
1.60911e-23
2.43654e-23
1.70884e-22
1.26422e-22
9.15173e-22
4.39146e-22
3.19386e-21
1.38071e-21
9.17923e-21
4.4964e-21
2.70089e-20
1.33729e-20
8.07785e-20
3.26289e-20
2.12645e-19
6.7581e-20
4.67356e-19
1.25823e-19
8.88435e-19
2.31466e-19
1.56307e-18
4.62922e-19
2.81547e-18
9.99321e-19
5.51113e-18
2.10744e-18
1.10964e-17
3.98104e-18
2.08214e-17
6.44502e-18
3.41792e-17
8.74454e-18
4.77038e-17
9.76904e-18
5.57785e-17
8.80313e-18
5.39091e-17
6.22525e-18
4.23242e-17
3.31697e-18
2.63232e-17
1.24327e-18
1.2473e-17
2.8261e-19
4.21135e-18
2.14256e-20
8.8259e-19
-1.28527e-21
7.44923e-20
-1.3349e-21
-2.29575e-21
-1.71934e-21
-2.48715e-21
-2.12054e-21
-3.39215e-21
-2.53473e-21
-4.31218e-21
-2.91992e-21
-5.52311e-21
-3.32499e-21
-7.3985e-21
-4.36481e-21
-1.31542e-20
-9.87035e-21
-4.76505e-20
-4.45102e-20
-3.10175e-19
-2.54745e-19
-2.43306e-18
-1.18719e-18
-1.97154e-17
-5.66006e-19
-1.44237e-16
3.51706e-17
-7.9527e-16
2.66286e-16
-3.06489e-15
1.14262e-15
-8.87696e-15
3.78144e-15
-2.15014e-14
1.11332e-14
-4.58047e-14
4.03861e-14
-8.3796e-14
2.59427e-13
-2.11251e-13
-2.0923e-12
1.22409e-24
4.71426e-24
1.29769e-23
4.68736e-23
6.56732e-23
2.37746e-22
2.4172e-22
8.15822e-22
8.53119e-22
2.4636e-21
2.94278e-21
7.69384e-21
8.71467e-21
2.29705e-20
2.1203e-20
5.84209e-20
4.41698e-20
1.24326e-19
8.46498e-20
2.31421e-19
1.65583e-19
4.0899e-19
3.51612e-19
7.59734e-19
7.68184e-19
1.52502e-18
1.56549e-18
3.05968e-18
2.79412e-18
5.60204e-18
4.24415e-18
8.9098e-18
5.4035e-18
1.20541e-17
5.68555e-18
1.37128e-17
4.85494e-18
1.29598e-17
3.27799e-18
1.0009e-17
1.68139e-18
6.16362e-18
6.12167e-19
2.91197e-18
1.37653e-19
9.88436e-19
1.23885e-20
2.11712e-19
-2.40996e-22
2.00406e-20
-2.32828e-22
-2.18603e-22
-3.07016e-22
-2.2495e-22
-4.10527e-22
-3.55312e-22
-5.28313e-22
-4.94307e-22
-6.64658e-22
-7.02979e-22
-9.3374e-22
-1.23112e-21
-2.13825e-21
-4.11814e-21
-1.05394e-20
-2.64544e-20
-7.36938e-20
-2.09117e-19
-5.59391e-19
-1.70879e-18
-4.24464e-18
-1.40887e-17
-2.58379e-17
-1.06226e-16
-1.02072e-16
-6.1791e-16
-2.52776e-16
-2.55848e-15
-3.97551e-16
-7.91881e-15
-2.00383e-16
-2.01215e-14
1.43717e-15
-4.37103e-14
1.0791e-14
-7.47212e-14
1.64459e-13
-1.18693e-13
-2.67949e-12
4.55001e-25
1.0202e-24
4.5515e-24
9.56047e-24
2.28352e-23
4.64376e-23
8.93816e-23
1.59443e-22
3.39344e-22
5.08033e-22
1.18457e-21
1.64835e-21
3.43412e-21
4.86326e-21
8.18849e-21
1.19719e-20
1.68776e-20
2.45988e-20
3.27624e-20
4.43294e-20
6.64805e-20
7.67766e-20
1.45241e-19
1.42025e-19
3.16393e-19
2.8514e-19
6.27975e-19
5.69969e-19
1.08148e-18
1.03102e-18
1.5828e-18
1.61286e-18
1.94594e-18
2.14367e-18
1.9851e-18
2.3995e-18
1.65218e-18
2.23785e-18
1.09416e-18
1.71321e-18
5.54417e-19
1.0517e-18
2.01152e-19
4.98516e-19
4.58582e-20
1.71135e-19
4.59676e-21
3.7584e-20
-3.10872e-23
3.82974e-21
-2.94364e-23
-1.76056e-23
-4.079e-23
-1.92699e-23
-6.02563e-23
-3.51631e-23
-8.30128e-23
-5.36175e-23
-1.21701e-22
-9.48806e-23
-2.65726e-22
-2.92265e-22
-1.27722e-21
-1.83557e-21
-9.45273e-21
-1.49875e-20
-7.3774e-20
-1.2435e-19
-5.96063e-19
-1.02917e-18
-4.91942e-18
-8.57981e-18
-3.47208e-17
-6.70222e-17
-1.73368e-16
-4.21498e-16
-5.95499e-16
-1.9199e-15
-1.54939e-15
-6.39455e-15
-3.37567e-15
-1.70598e-14
-5.70321e-15
-3.99505e-14
-2.36456e-15
-7.77954e-14
1.54464e-14
-1.29517e-13
-9.47757e-13
1.14204e-25
1.46161e-25
1.09719e-24
1.29756e-24
5.54179e-24
6.09179e-24
2.30568e-23
2.11718e-23
9.16476e-23
7.09336e-23
3.18559e-22
2.35442e-22
9.00305e-22
6.82201e-22
2.08607e-21
1.61616e-21
4.18568e-21
3.14156e-21
7.99776e-21
5.20908e-21
1.62126e-20
8.01981e-21
3.54932e-20
1.3152e-20
7.70794e-20
2.47769e-20
1.51053e-19
5.14824e-20
2.55419e-19
9.72331e-20
3.66246e-19
1.56389e-19
4.41479e-19
2.10371e-19
4.42584e-19
2.36055e-19
3.63474e-19
2.19142e-19
2.38804e-19
1.66924e-19
1.20817e-19
1.02289e-19
4.41239e-20
4.86412e-20
1.02692e-20
1.68589e-20
1.10383e-21
3.77394e-21
-3.10989e-24
4.01342e-22
-2.96169e-24
-1.1509e-24
-4.68336e-24
-1.6549e-24
-7.4274e-24
-3.30435e-24
-1.14499e-23
-5.91885e-24
-2.39657e-23
-1.70445e-23
-1.06954e-22
-1.02316e-22
-8.26546e-22
-8.6595e-22
-6.86222e-21
-7.5497e-21
-5.56517e-20
-6.40949e-20
-4.6084e-19
-5.37484e-19
-3.93233e-18
-4.50919e-18
-3.04992e-17
-3.62662e-17
-1.78286e-16
-2.47152e-16
-7.16612e-16
-1.25865e-15
-2.08223e-15
-4.61638e-15
-5.13206e-15
-1.30303e-14
-1.13258e-14
-3.24721e-14
-1.46826e-14
-7.69666e-14
9.93752e-15
-1.61047e-13
-4.54954e-13
1.80835e-26
1.0459e-26
1.68524e-25
8.82863e-26
8.65776e-25
4.03205e-25
3.80738e-24
1.42728e-24
1.55631e-23
4.996e-24
5.33949e-23
1.67668e-23
1.45902e-22
4.72603e-23
3.21161e-22
1.05268e-22
5.95037e-22
1.80094e-22
1.01357e-21
2.17335e-22
1.82536e-21
1.0396e-22
3.75476e-21
-3.10071e-22
8.48079e-21
-1.48808e-21
1.73495e-20
-1.91168e-21
3.01368e-20
-1.35229e-21
4.3671e-20
2.16663e-22
5.26658e-20
2.46061e-21
5.24289e-20
4.10367e-21
4.27254e-20
4.03227e-21
2.79402e-20
2.97265e-21
1.41389e-20
1.70239e-21
5.19833e-21
7.40615e-22
1.22983e-21
2.30049e-22
1.37634e-22
4.43532e-23
-2.41499e-25
3.54717e-24
-2.51277e-25
-6.18288e-26
-4.74755e-25
-1.46051e-25
-8.1895e-25
-3.04477e-25
-1.66233e-24
-8.16095e-25
-6.75744e-24
-4.64856e-24
-5.25735e-23
-4.03219e-23
-4.70376e-22
-3.71652e-22
-4.07806e-21
-3.33303e-21
-3.41999e-20
-2.89663e-20
-2.87701e-19
-2.46266e-19
-2.48338e-18
-2.07202e-18
-2.04604e-17
-1.6932e-17
-1.36352e-16
-1.2341e-16
-6.42245e-16
-7.08725e-16
-2.10706e-15
-2.96928e-15
-5.37872e-15
-9.23501e-15
-1.32214e-14
-2.35726e-14
-3.08442e-14
-5.76428e-14
-9.13022e-15
-1.55978e-13
-5.01903e-13
1.38649e-27
-1.26141e-42
1.26125e-26
-3.49536e-40
6.62585e-26
-4.60479e-38
3.05659e-25
-3.10865e-36
1.26826e-24
-1.19065e-34
4.24861e-24
-4.75806e-33
1.09527e-23
-2.09563e-31
2.12833e-23
-8.8591e-30
2.87739e-23
-3.39585e-28
1.526e-23
-1.17631e-26
-5.00609e-23
-3.71403e-25
-2.0492e-22
-1.60748e-23
-3.66907e-22
-1.70295e-22
-2.77159e-22
-3.55349e-22
4.86237e-23
-3.25118e-22
5.9435e-22
-5.65258e-22
1.064e-21
-3.63952e-22
1.11939e-21
-7.86383e-23
8.81323e-22
-2.21039e-23
5.37596e-22
-4.40168e-24
2.484e-22
-5.33718e-25
8.16893e-23
-1.28745e-25
1.66153e-23
-5.31916e-26
1.39623e-24
-1.1994e-26
-1.52682e-26
-3.96769e-27
-2.07491e-26
-4.17081e-27
-4.35418e-26
-1.25166e-26
-9.17304e-26
-3.23385e-26
-3.37969e-25
-1.76416e-25
-2.5807e-24
-1.55296e-24
-2.44495e-23
-1.50253e-23
-2.28783e-22
-1.42519e-22
-2.05515e-21
-1.30844e-21
-1.77957e-20
-1.16233e-20
-1.51861e-19
-1.00307e-19
-1.30983e-18
-8.46971e-19
-1.11145e-17
-6.97445e-18
-8.22222e-17
-5.34137e-17
-4.56375e-16
-3.40866e-16
-1.77836e-15
-1.63227e-15
-5.03023e-15
-5.79812e-15
-1.16498e-14
-1.65647e-14
-2.27302e-14
-4.51844e-14
-7.97324e-15
-1.46728e-13
-5.63774e-13
-1.26148e-42
6.8386e-47
-3.50777e-40
-2.0527e-44
-4.6396e-38
-2.70291e-42
-3.15481e-36
-2.38226e-40
-1.22204e-34
-1.59352e-38
-4.87942e-33
-8.62275e-37
-2.1442e-31
-3.95443e-35
-9.07307e-30
-1.58074e-33
-3.48655e-28
-5.60186e-32
-1.21122e-26
-1.78471e-30
-3.83543e-25
-5.17368e-29
-5.24798e-24
-7.14014e-28
-7.70718e-23
-1.90127e-26
-4.11961e-23
-6.28883e-25
-1.43321e-22
-4.45695e-24
-9.88528e-23
-6.29778e-24
-3.62299e-23
-1.75083e-25
-1.09344e-23
-1.7979e-25
-2.46846e-24
-1.599e-25
-3.11746e-25
-4.09082e-26
-7.12849e-26
-3.15399e-27
-3.11903e-26
-3.78081e-29
-7.66254e-27
-2.04237e-29
-2.3152e-27
-4.29565e-29
-1.03997e-27
-1.51548e-28
-1.69935e-27
-3.81221e-28
-4.0038e-27
-1.07024e-27
-1.38302e-26
-5.84295e-27
-1.03021e-25
-5.21358e-26
-1.01625e-24
-5.21119e-25
-1.01172e-23
-5.15935e-24
-9.73253e-23
-4.97011e-23
-9.01132e-22
-4.64328e-22
-8.03841e-21
-4.20037e-21
-6.97454e-20
-3.67877e-20
-6.00842e-19
-3.12609e-19
-5.1649e-18
-2.5786e-18
-4.11014e-17
-2.01995e-17
-2.59468e-16
-1.39331e-16
-1.18043e-15
-7.64509e-16
-3.92857e-15
-3.22347e-15
-1.03655e-14
-1.10537e-14
-2.12018e-14
-3.64095e-14
4.45459e-15
-1.41461e-13
-6.59003e-13
-2.30653e-46
4.53153e-46
-2.01623e-44
-5.95417e-46
-2.63262e-42
-7.44235e-44
-2.3261e-40
-6.25028e-42
-1.56139e-38
-3.87629e-40
-8.51005e-37
-2.11068e-38
-3.91821e-35
-1.04597e-36
-1.56791e-33
-4.58206e-35
-5.55769e-32
-1.77321e-33
-1.77045e-30
-6.1584e-32
-5.1038e-29
-2.33877e-30
-7.14457e-28
-3.88339e-29
-1.51458e-26
-8.42068e-29
-2.41955e-25
-9.47881e-29
-1.7642e-24
-1.081e-28
-2.64378e-26
-8.28319e-29
-2.91148e-26
-2.51005e-29
-3.01669e-26
-5.36584e-30
-1.28114e-26
-1.86689e-30
-1.18283e-27
-1.15859e-30
-1.1401e-29
-8.4286e-31
-4.59104e-30
-7.46725e-31
-5.67715e-30
-9.51531e-31
-1.88977e-29
-2.80829e-30
-5.585e-29
-8.73509e-30
-1.32676e-28
-2.95733e-29
-4.77016e-28
-1.75811e-28
-3.56663e-27
-1.62514e-27
-3.6133e-26
-1.66392e-26
-3.74927e-25
-1.68401e-25
-3.79043e-24
-1.66654e-24
-3.71323e-23
-1.61136e-23
-3.51731e-22
-1.51907e-22
-3.21708e-21
-1.39165e-21
-2.84652e-20
-1.23436e-20
-2.46247e-19
-1.05763e-19
-2.10732e-18
-8.74762e-19
-1.72553e-17
-6.9282e-18
-1.20631e-16
-5.05338e-17
-6.51544e-16
-3.15377e-16
-2.64932e-15
-1.60975e-15
-8.45918e-15
-6.78808e-15
-1.79234e-14
-2.73787e-14
9.73101e-15
-1.26997e-13
-6.22475e-13
-7.15007e-48
8.62382e-47
-5.86627e-46
-1.59498e-47
-7.25743e-44
-2.37871e-45
-6.08847e-42
-2.35995e-43
-4.10638e-40
-1.55949e-41
-2.34289e-38
-7.65848e-40
-1.17111e-36
-3.21054e-38
-5.11195e-35
-1.17261e-36
-1.96907e-33
-3.79861e-35
-6.78898e-32
-1.10206e-33
-2.54265e-30
-2.52507e-32
-1.21683e-29
-8.81135e-31
-1.28795e-29
-4.56686e-30
-1.5974e-29
-8.28977e-30
-1.58797e-29
-9.35838e-30
-6.81948e-30
-7.46103e-30
-1.52503e-30
-2.29576e-30
-4.74519e-31
-4.43053e-31
-2.81856e-31
-1.24491e-31
-1.97274e-31
-6.89591e-32
-1.74307e-31
-4.74754e-32
-1.86151e-31
-4.01035e-32
-3.60203e-31
-4.43819e-32
-1.13452e-30
-1.29208e-31
-3.31972e-30
-6.48423e-31
-1.40792e-29
-4.85665e-30
-1.12732e-28
-4.85747e-29
-1.18076e-27
-5.03264e-28
-1.25657e-26
-5.15057e-27
-1.30341e-25
-5.16472e-26
-1.31832e-24
-5.07e-25
-1.30042e-23
-4.87503e-24
-1.24878e-22
-4.59021e-23
-1.16333e-21
-4.22251e-22
-1.04811e-20
-3.77614e-21
-9.14889e-20
-3.26675e-20
-7.79817e-19
-2.7231e-19
-6.44309e-18
-2.17871e-18
-4.85195e-17
-1.65011e-17
-3.09643e-16
-1.13522e-16
-1.57504e-15
-6.78884e-16
-5.90911e-15
-3.55019e-15
-1.57105e-14
-1.72187e-14
-3.33269e-14
-9.12791e-14
-4.6908e-13
-2.13391e-49
-1.96956e-52
-2.07356e-47
-5.98624e-50
-3.0182e-45
-7.13341e-48
-2.95321e-43
-5.70676e-46
-1.73791e-41
-3.40755e-44
-7.99338e-40
-1.6378e-42
-3.29395e-38
-6.63667e-41
-1.20347e-36
-2.32923e-39
-3.90937e-35
-7.23081e-38
-1.13854e-33
-2.01469e-36
-2.19697e-32
-4.87496e-35
-3.45978e-31
-1.32552e-33
-1.07635e-30
-6.00967e-33
-1.48165e-30
-1.19258e-32
-1.49865e-30
-1.59194e-32
-6.72633e-31
-1.71589e-32
-1.41251e-31
-1.5889e-32
-3.6491e-32
-1.11899e-32
-1.90948e-32
-7.41697e-33
-1.26066e-32
-4.40049e-33
-1.01567e-32
-2.53795e-33
-1.05612e-32
-1.87768e-33
-1.5718e-32
-2.43513e-33
-5.69455e-32
-1.38903e-32
-3.4936e-31
-1.33344e-31
-3.33032e-30
-1.38962e-30
-3.63204e-29
-1.4552e-29
-3.91715e-28
-1.49781e-28
-4.12753e-27
-1.51237e-27
-4.24713e-26
-1.49773e-26
-4.26957e-25
-1.45529e-25
-4.19905e-24
-1.38556e-24
-4.0415e-23
-1.29211e-23
-3.79649e-22
-1.17804e-22
-3.46654e-21
-1.04876e-21
-3.06459e-20
-9.08985e-21
-2.62313e-19
-7.61188e-20
-2.17965e-18
-6.11763e-19
-1.72099e-17
-4.69895e-18
-1.2191e-16
-3.39812e-17
-7.58983e-16
-2.2352e-16
-3.55919e-15
-1.32406e-15
-1.31969e-14
-7.35637e-15
-6.34412e-14
-4.11895e-14
-2.20295e-13
-1.89257e-52
-7.69958e-54
-5.85855e-50
-1.37606e-51
-6.97411e-48
-1.62424e-49
-5.5848e-46
-1.27971e-47
-3.34071e-44
-7.43566e-46
-1.61322e-42
-3.59799e-44
-6.56571e-41
-1.50329e-42
-2.31527e-39
-5.46221e-41
-7.21932e-38
-1.74796e-39
-2.01895e-36
-4.96743e-38
-3.96893e-35
-1.14069e-36
-4.63081e-34
-3.70431e-35
-1.43297e-33
-2.64466e-34
-2.45493e-33
-6.90155e-34
-3.09517e-33
-1.10324e-33
-3.24274e-33
-1.32575e-33
-2.774e-33
-1.35367e-33
-2.05115e-33
-1.01265e-33
-1.34231e-33
-5.97616e-34
-7.72286e-34
-3.64925e-34
-5.35329e-34
-2.01669e-34
-4.9546e-34
-1.30452e-34
-1.08506e-33
-3.43376e-34
-9.84163e-33
-3.23031e-33
-1.02707e-31
-3.48893e-32
-1.08704e-30
-3.73435e-31
-1.15364e-29
-3.9049e-30
-1.21508e-28
-3.98921e-29
-1.26558e-27
-3.98629e-28
-1.29064e-26
-3.8988e-27
-1.28776e-25
-3.73346e-26
-1.25727e-24
-3.49906e-25
-1.19997e-23
-3.20674e-24
-1.11975e-22
-2.86914e-23
-1.02231e-21
-2.50068e-22
-9.08401e-21
-2.11672e-21
-7.80649e-20
-1.73544e-20
-6.4817e-19
-1.37932e-19
-5.19683e-18
-1.04796e-18
-3.90995e-17
-7.56565e-18
-2.63011e-16
-5.12143e-17
-1.51549e-15
-3.14916e-16
-8.09722e-15
-1.76922e-15
-4.52762e-14
-1.00232e-14
-5.62626e-14
-7.46945e-54
-2.30138e-55
-1.33486e-51
-5.16779e-53
-1.56537e-49
-6.66506e-51
-1.23295e-47
-5.67608e-49
-7.5772e-46
-3.44438e-47
-3.7596e-44
-1.61644e-45
-1.57131e-42
-6.39118e-44
-5.703e-41
-2.19755e-42
-1.81748e-39
-6.64982e-41
-5.16561e-38
-1.80596e-39
-9.87066e-37
-4.29364e-38
-1.69274e-35
-1.4675e-36
-7.72089e-35
-1.17498e-35
-1.68512e-34
-3.26421e-35
-2.4749e-34
-5.46933e-35
-2.82837e-34
-6.85194e-35
-2.67861e-34
-7.23327e-35
-1.78262e-34
-6.6088e-35
-1.1716e-34
-4.27445e-35
-6.74045e-35
-2.59222e-35
-3.75899e-35
-1.46373e-35
-4.45219e-35
-1.08567e-35
-3.16575e-34
-6.2244e-35
-2.87307e-33
-6.581e-34
-3.13071e-32
-7.23168e-33
-3.38997e-31
-7.74514e-32
-3.59093e-30
-8.07751e-31
-3.7183e-29
-8.21321e-30
-3.76792e-28
-8.15114e-29
-3.73975e-27
-7.90089e-28
-3.63658e-26
-7.48089e-27
-3.463e-25
-6.91647e-26
-3.22648e-24
-6.23806e-25
-2.93644e-23
-5.47983e-24
-2.60482e-22
-4.67848e-23
-2.24229e-21
-3.87162e-22
-1.87296e-20
-3.09787e-21
-1.53043e-19
-2.39168e-20
-1.20722e-18
-1.77644e-19
-9.15353e-18
-1.25205e-18
-6.46852e-17
-8.31924e-18
-3.92001e-16
-5.12654e-17
-2.2157e-15
-2.86075e-16
-1.29554e-14
-1.49436e-15
-8.17728e-15
-2.88719e-55
-3.65447e-57
-5.84823e-53
-8.09806e-55
-7.4321e-51
-9.71936e-53
-6.24795e-49
-7.72924e-51
-3.56066e-47
-4.58805e-49
-1.62475e-45
-2.18665e-47
-6.40659e-44
-8.73557e-46
-2.20619e-42
-3.0157e-44
-6.70606e-41
-9.16262e-43
-1.82964e-39
-2.49772e-41
-4.00419e-38
-5.76014e-40
-7.29502e-37
-1.91398e-38
-3.61999e-36
-2.76497e-37
-8.32807e-36
-1.04561e-36
-1.27987e-35
-2.12817e-36
-1.54324e-35
-3.03438e-36
-1.60792e-35
-3.44383e-36
-1.28814e-35
-3.42625e-36
-8.5194e-36
-2.37193e-36
-4.70217e-36
-1.31707e-36
-3.06024e-36
-7.66352e-37
-4.91216e-36
-9.57345e-37
-6.17567e-35
-9.30423e-36
-6.4976e-34
-1.042e-34
-7.16764e-33
-1.15287e-33
-7.7599e-32
-1.23867e-32
-8.19009e-31
-1.29398e-31
-8.43182e-30
-1.31587e-30
-8.47626e-29
-1.30377e-29
-8.32593e-28
-1.25917e-28
-7.99252e-27
-1.18539e-27
-7.49495e-26
-1.0874e-26
-6.85917e-25
-9.71178e-26
-6.11765e-24
-8.4313e-25
-5.30733e-23
-7.10008e-24
-4.46955e-22
-5.78974e-23
-3.61583e-21
-4.56539e-22
-2.8114e-20
-3.45666e-21
-2.16038e-19
-2.52951e-20
-1.59584e-18
-1.7518e-19
-1.12033e-17
-1.14427e-18
-7.26263e-17
-6.95566e-18
-4.03121e-16
-3.86212e-17
-2.05023e-15
-1.97735e-16
-1.00345e-15
-3.62912e-57
-2.53466e-59
-8.03974e-55
-5.70084e-57
-9.65588e-53
-6.95159e-55
-7.71144e-51
-5.61861e-53
-4.59796e-49
-3.36377e-51
-2.20477e-47
-1.64407e-49
-8.85205e-46
-6.79035e-48
-3.06856e-44
-2.41388e-46
-9.3739e-43
-7.52787e-45
-2.56299e-41
-2.09715e-43
-5.8468e-40
-4.91342e-42
-1.27243e-38
-1.22238e-40
-1.00201e-37
-3.75661e-39
-3.01411e-37
-2.48662e-38
-5.51802e-37
-6.72682e-38
-7.45249e-37
-1.12513e-37
-8.07167e-37
-1.39298e-37
-7.26726e-37
-1.44541e-37
-4.47233e-37
-1.13059e-37
-2.53097e-37
-5.78042e-38
-1.65938e-37
-3.33008e-38
-6.69554e-37
-9.10367e-38
-9.65624e-36
-1.04212e-36
-1.1066e-34
-1.19987e-35
-1.23636e-33
-1.34127e-34
-1.34351e-32
-1.45384e-33
-1.4198e-31
-1.53052e-32
-1.46084e-30
-1.56718e-31
-1.46461e-29
-1.56201e-30
-1.43171e-28
-1.51601e-29
-1.36524e-27
-1.43274e-28
-1.26927e-26
-1.31791e-27
-1.14907e-25
-1.17893e-26
-1.01198e-24
-1.02424e-25
-8.67163e-24
-8.62872e-25
-7.21979e-23
-7.04139e-24
-5.69196e-22
-5.54242e-23
-4.2757e-21
-4.22151e-22
-3.27123e-20
-3.06268e-21
-2.38827e-19
-2.10917e-20
-1.65348e-18
-1.37303e-19
-1.05859e-17
-8.36317e-19
-6.13418e-17
-4.67001e-18
-3.272e-16
-2.36287e-17
-1.15024e-16
-2.52221e-59
-1.24539e-61
-5.69462e-57
-3.1452e-59
-6.94067e-55
-4.09352e-57
-5.63695e-53
-3.51244e-55
-3.4978e-51
-2.19006e-53
-1.72992e-49
-1.07238e-51
-7.14143e-48
-4.41348e-50
-2.53669e-46
-1.5634e-48
-7.90154e-45
-4.86e-47
-2.20352e-43
-1.35069e-45
-5.06558e-42
-3.25068e-44
-1.11546e-40
-7.61124e-43
-1.83999e-39
-2.29614e-41
-8.51035e-39
-3.67211e-40
-1.95381e-38
-1.49699e-39
-2.97374e-38
-3.14958e-39
-3.46905e-38
-4.47302e-39
-3.39422e-38
-4.94208e-39
-2.03626e-38
-4.63441e-39
-1.06782e-38
-2.67343e-39
-1.03334e-38
-1.6087e-39
-9.17375e-38
-7.3773e-39
-1.16555e-36
-8.80987e-38
-1.35942e-35
-1.0316e-36
-1.53994e-34
-1.16931e-35
-1.68815e-33
-1.28466e-34
-1.79422e-32
-1.3698e-33
-1.8544e-31
-1.41903e-32
-1.86542e-30
-1.42919e-31
-1.82709e-29
-1.39992e-30
-1.74234e-28
-1.33356e-29
-1.61702e-27
-1.23493e-28
-1.45933e-26
-1.1108e-27
-1.2793e-25
-9.69463e-27
-1.0877e-24
-8.20448e-26
-8.82276e-24
-6.71458e-25
-6.89242e-23
-5.33026e-24
-5.47451e-22
-4.04864e-23
-4.18083e-21
-2.93219e-22
-3.05081e-20
-2.0195e-21
-2.12201e-19
-1.31806e-20
-1.38416e-18
-8.08947e-20
-8.07027e-18
-4.58472e-19
-4.10062e-17
-2.35413e-18
-1.14216e-17
-1.42338e-61
-2.73819e-64
-3.39082e-59
-6.93234e-62
-4.3801e-57
-8.93854e-60
-3.73654e-55
-7.60741e-58
-2.24918e-53
-4.81175e-56
-1.09073e-51
-2.42781e-54
-4.50277e-50
-1.02071e-52
-1.60149e-48
-3.68688e-51
-4.99874e-47
-1.16733e-49
-1.3949e-45
-3.30121e-48
-3.37498e-44
-8.10297e-47
-7.90411e-43
-1.89558e-45
-1.78448e-41
-4.26111e-44
-1.56184e-40
-1.28583e-42
-4.97327e-40
-1.27191e-41
-9.1944e-40
-4.34313e-41
-1.20062e-39
-8.39802e-41
-1.25645e-39
-1.12917e-40
-9.20902e-40
-1.20823e-40
-4.82936e-40
-1.08448e-40
-6.4375e-40
-7.88633e-41
-7.85289e-39
-4.66314e-40
-9.94659e-38
-5.69719e-39
-1.17781e-36
-6.77333e-38
-1.34624e-35
-7.78641e-37
-1.49137e-34
-8.66702e-36
-1.60347e-33
-9.35258e-35
-1.67494e-32
-9.7936e-34
-1.70096e-31
-9.95827e-33
-1.67995e-30
-9.83541e-32
-1.61357e-29
-9.43533e-31
-1.50664e-28
-8.78855e-30
-1.36677e-27
-7.94255e-29
-1.20382e-26
-6.96149e-28
-1.0161e-25
-5.91166e-27
-8.27722e-25
-4.87179e-26
-6.84027e-24
-3.86145e-25
-5.47275e-23
-2.92692e-24
-4.1927e-22
-2.11742e-23
-3.07365e-21
-1.45809e-22
-2.15463e-20
-9.52918e-22
-1.42973e-19
-5.87314e-21
-8.59291e-19
-3.35645e-20
-4.4231e-18
-1.73745e-19
-8.43285e-19
-2.73314e-64
-5.05468e-67
-6.93083e-62
-1.31881e-64
-8.97044e-60
-1.75768e-62
-7.66489e-58
-1.54184e-60
-4.86802e-56
-1.00015e-58
-2.46931e-54
-5.22831e-57
-1.04277e-52
-2.2835e-55
-3.7812e-51
-8.53823e-54
-1.20264e-49
-2.79187e-52
-3.41617e-48
-8.13171e-51
-8.4011e-47
-2.063e-49
-1.96815e-45
-4.92604e-48
-4.29806e-44
-1.08382e-46
-8.34537e-43
-2.40184e-45
-5.37745e-42
-6.8059e-44
-1.50639e-41
-4.57694e-43
-2.57847e-41
-1.25604e-42
-3.17492e-41
-2.07014e-42
-3.1719e-41
-2.50972e-42
-2.25838e-41
-2.62905e-42
-3.44582e-41
-3.18215e-42
-5.04213e-40
-2.39987e-41
-6.43745e-39
-2.99193e-40
-7.72938e-38
-3.61896e-39
-8.95471e-37
-4.22842e-38
-1.00451e-35
-4.77884e-37
-1.09246e-34
-5.23025e-36
-1.15301e-33
-5.54857e-35
-1.18173e-32
-5.7091e-34
-1.17654e-31
-5.69928e-33
-1.13787e-30
-5.51997e-32
-1.06867e-29
-5.18546e-31
-9.74656e-29
-4.72238e-30
-8.5642e-28
-4.16976e-29
-7.25524e-27
-3.57264e-28
-6.15835e-26
-2.95947e-27
-5.14657e-25
-2.34891e-26
-4.12781e-24
-1.78425e-25
-3.17304e-23
-1.294e-24
-2.33638e-22
-8.93756e-24
-1.64855e-21
-5.8632e-23
-1.10754e-20
-3.6335e-22
-6.78497e-20
-2.09402e-21
-3.51525e-19
-1.09364e-20
-5.32224e-20
-5.05086e-67
-3.82039e-70
-1.3247e-64
-1.08281e-67
-1.76956e-62
-1.52874e-65
-1.55921e-60
-1.41316e-63
-1.03682e-58
-9.5438e-62
-5.44947e-57
-5.082e-60
-2.37857e-55
-2.26155e-58
-8.89608e-54
-8.61693e-57
-2.91029e-52
-2.87278e-55
-8.49213e-51
-8.53313e-54
-2.14356e-49
-2.2361e-52
-5.12746e-48
-5.47319e-51
-1.13243e-46
-1.23126e-49
-2.34926e-45
-2.57665e-48
-4.07816e-44
-5.89142e-47
-1.92449e-43
-1.42423e-45
-4.34055e-43
-8.08463e-45
-6.31679e-43
-2.02353e-44
-7.08085e-43
-3.20195e-44
-6.12544e-43
-4.14196e-44
-1.52412e-42
-9.93814e-44
-2.60209e-41
-1.04439e-42
-3.37972e-40
-1.33187e-41
-4.12699e-39
-1.64551e-40
-4.8585e-38
-1.96206e-39
-5.53277e-37
-2.2608e-38
-6.10228e-36
-2.52024e-37
-6.52471e-35
-2.72045e-36
-6.76745e-34
-2.84531e-35
-6.81133e-33
-2.88437e-34
-6.65288e-32
-2.83414e-33
-6.30528e-31
-2.69867e-32
-5.7832e-30
-2.49085e-31
-5.11036e-29
-2.22646e-30
-4.43776e-28
-1.93663e-29
-3.88022e-27
-1.61629e-28
-3.26166e-26
-1.29382e-27
-2.63319e-25
-9.91481e-27
-2.03864e-24
-7.25742e-26
-1.51283e-23
-5.06209e-25
-1.07714e-22
-3.35585e-24
-7.33054e-22
-2.10447e-23
-4.57918e-21
-1.23129e-22
-2.39667e-20
-6.5555e-22
-3.24408e-21
-4.12381e-70
-2.5232e-73
-1.13142e-67
-7.31948e-71
-1.59166e-65
-1.05121e-68
-1.46763e-63
-9.90113e-67
-9.72383e-62
-6.91549e-65
-5.17066e-60
-3.83265e-63
-2.30995e-58
-1.76275e-61
-8.83545e-57
-6.93733e-60
-2.95698e-55
-2.38707e-58
-8.81659e-54
-7.31289e-57
-2.32057e-52
-1.9777e-55
-5.69385e-51
-4.98517e-54
-1.28573e-49
-1.15447e-52
-2.70447e-48
-2.4766e-51
-6.09251e-47
-5.03467e-50
-8.53331e-46
-1.31951e-48
-3.46706e-45
-1.98653e-47
-7.09711e-45
-8.70204e-47
-9.69031e-45
-2.03627e-46
-1.04217e-44
-4.24335e-46
-5.50707e-44
-2.84146e-45
-1.12836e-42
-3.75366e-44
-1.50038e-41
-4.93649e-43
-1.87101e-40
-6.25602e-42
-2.24727e-39
-7.64413e-41
-2.60862e-38
-9.01793e-40
-2.93004e-37
-1.02833e-38
-3.18748e-36
-1.13449e-37
-3.36056e-35
-1.21164e-36
-3.43501e-34
-1.25319e-35
-3.40468e-33
-1.25535e-34
-3.27366e-32
-1.21801e-33
-3.02259e-31
-1.14514e-32
-2.7013e-30
-1.04644e-31
-2.4791e-29
-9.23223e-31
-2.19306e-28
-7.8204e-30
-1.8667e-27
-6.35587e-29
-1.52689e-26
-4.94736e-28
-1.19864e-25
-3.68074e-27
-9.02563e-25
-2.61146e-26
-6.52616e-24
-1.7625e-25
-4.52098e-23
-1.12668e-24
-2.89544e-22
-6.74165e-24
-1.56562e-21
-3.69225e-23
-1.87794e-22
-2.52259e-73
-6.15921e-77
-7.3413e-71
-1.85513e-74
-1.05809e-68
-2.76578e-72
-1.00024e-66
-2.70206e-70
-7.01247e-65
-1.95321e-68
-3.90421e-63
-1.12715e-66
-1.80295e-61
-5.39831e-65
-7.12197e-60
-2.20869e-63
-2.4598e-58
-7.88807e-62
-7.56443e-57
-2.50472e-60
-2.05262e-55
-7.02985e-59
-5.18694e-54
-1.8291e-57
-1.20555e-52
-4.37132e-56
-2.59553e-51
-9.67049e-55
-5.32747e-50
-1.99346e-53
-1.20291e-48
-3.87707e-52
-1.07958e-47
-8.42277e-51
-3.78321e-47
-1.57045e-49
-6.38392e-47
-9.57323e-49
-1.75543e-46
-6.02885e-48
-2.77729e-45
-7.77017e-47
-4.15702e-44
-1.09022e-45
-5.5448e-43
-1.47844e-44
-7.07699e-42
-1.92881e-43
-8.70695e-41
-2.42427e-42
-1.03444e-39
-2.93954e-41
-1.1882e-38
-3.44262e-40
-1.32076e-37
-3.89762e-39
-1.42165e-36
-4.26867e-38
-1.48247e-35
-4.5242e-37
-1.49829e-34
-4.64103e-36
-1.46225e-33
-4.61055e-35
-1.37909e-32
-4.43651e-34
-1.29582e-31
-4.15579e-33
-1.21208e-30
-3.73961e-32
-1.09209e-29
-3.23421e-31
-9.47303e-29
-2.6848e-30
-7.90246e-28
-2.13583e-29
-6.33301e-27
-1.62525e-28
-4.87333e-26
-1.18053e-27
-3.60417e-25
-8.16588e-27
-2.55793e-24
-5.35712e-26
-1.69142e-23
-3.29784e-25
-9.58387e-23
-1.86709e-24
-9.81897e-24
-6.1472e-77
-1.20131e-79
-1.8635e-74
-3.79861e-77
-2.78649e-72
-5.92792e-75
-2.73323e-70
-6.04418e-73
-2.00031e-68
-4.50805e-71
-1.15661e-66
-2.67483e-69
-5.54901e-65
-1.32296e-67
-2.27494e-63
-5.58821e-66
-8.14549e-62
-2.06163e-64
-2.59397e-60
-6.76016e-63
-7.29955e-59
-1.97514e-61
-1.90514e-57
-5.31345e-60
-4.57008e-56
-1.31234e-58
-1.01481e-54
-2.99888e-57
-2.09895e-53
-6.3819e-56
-4.08574e-52
-1.27192e-54
-7.89205e-51
-2.38611e-53
-1.09854e-49
-4.23488e-52
-3.29678e-49
-7.09968e-51
-4.04281e-48
-1.1197e-49
-8.27116e-47
-1.70348e-48
-1.20729e-45
-2.4896e-47
-1.65081e-44
-3.49138e-46
-2.16736e-43
-4.70587e-45
-2.74164e-42
-6.10623e-44
-3.34649e-41
-7.6385e-43
-3.94625e-40
-9.22248e-42
-4.49991e-39
-1.0757e-40
-4.96532e-38
-1.21291e-39
-5.30437e-37
-1.32269e-38
-5.49019e-36
-1.39541e-37
-5.46515e-35
-1.42523e-36
-5.26963e-34
-1.41399e-35
-5.23363e-33
-1.35797e-34
-5.00987e-32
-1.25384e-33
-4.62324e-31
-1.11306e-32
-4.1102e-30
-9.48877e-32
-3.51731e-29
-7.7572e-31
-2.89484e-28
-6.07108e-30
-2.29081e-27
-4.54015e-29
-1.74458e-26
-3.23752e-28
-1.27694e-25
-2.19291e-27
-8.76163e-25
-1.39548e-26
-5.22126e-24
-8.17109e-26
-4.44333e-25
-1.14183e-79
-8.54503e-82
-3.69828e-77
-2.87838e-79
-5.82886e-75
-4.67039e-77
-6.00784e-73
-4.9573e-75
-4.55598e-71
-3.92988e-73
-2.73203e-69
-2.45304e-71
-1.35676e-67
-1.26453e-69
-5.75445e-66
-5.56703e-68
-2.1318e-64
-2.14037e-66
-7.01928e-63
-7.31242e-65
-2.06385e-61
-2.23225e-63
-5.57605e-60
-6.25589e-62
-1.38348e-58
-1.60933e-60
-3.17607e-57
-3.82941e-59
-6.79068e-56
-8.48345e-58
-1.35984e-54
-1.75951e-56
-2.56335e-53
-3.43318e-55
-4.51095e-52
-6.32884e-54
-7.40857e-51
-1.10632e-52
-1.20707e-49
-1.8398e-51
-1.86574e-48
-2.91929e-50
-2.74549e-47
-4.43089e-49
-3.87235e-46
-6.44719e-48
-5.24968e-45
-9.01045e-47
-6.85273e-44
-1.21154e-45
-8.62569e-43
-1.56948e-44
-1.04819e-41
-1.96111e-43
-1.23088e-40
-2.36584e-42
-1.39778e-39
-2.75752e-41
-1.53597e-38
-3.10678e-40
-1.63094e-37
-3.38511e-39
-1.67368e-36
-3.56977e-38
-1.697e-35
-3.6618e-37
-1.73275e-34
-3.62392e-36
-1.70651e-33
-3.4505e-35
-1.62114e-32
-3.15984e-34
-1.48476e-31
-2.78032e-33
-1.31021e-30
-2.34759e-32
-1.11324e-29
-1.89921e-31
-9.10824e-29
-1.46957e-30
-7.18688e-28
-1.08585e-29
-5.46383e-27
-7.63574e-29
-3.90216e-26
-5.04394e-28
-2.42415e-25
-3.04767e-27
-1.6992e-26
-8.49649e-82
-4.854e-84
-2.88135e-79
-1.69576e-81
-4.7129e-77
-2.86054e-79
-5.023e-75
-3.16514e-77
-3.99602e-73
-2.61624e-75
-2.5022e-71
-1.70524e-73
-1.29414e-69
-9.1858e-72
-5.72071e-68
-4.22953e-70
-2.2081e-66
-1.70028e-68
-7.57451e-65
-6.07304e-67
-2.32727e-63
-1.94491e-65
-6.54905e-62
-5.69686e-64
-1.69195e-60
-1.53163e-62
-4.04348e-59
-3.80846e-61
-8.99705e-58
-8.81491e-60
-1.87437e-56
-1.9097e-58
-3.67389e-55
-3.89112e-57
-6.80389e-54
-7.48797e-56
-1.19497e-52
-1.36592e-54
-1.99674e-51
-2.36948e-53
-3.18406e-50
-3.91998e-52
-4.85748e-49
-6.20005e-51
-7.105e-48
-9.39586e-50
-9.98366e-47
-1.36689e-48
-1.34995e-45
-1.91204e-47
-1.75902e-44
-2.57536e-46
-2.21141e-43
-3.34399e-45
-2.68494e-42
-4.18982e-44
-3.15067e-41
-5.06941e-43
-3.57637e-40
-5.92633e-42
-3.91532e-39
-6.69817e-41
-4.14785e-38
-7.32505e-40
-4.42501e-37
-7.79624e-39
-4.66777e-36
-7.99233e-38
-4.75228e-35
-7.88724e-37
-4.66967e-34
-7.48931e-36
-4.42725e-33
-6.83682e-35
-4.04802e-32
-5.99351e-34
-3.56752e-31
-5.03849e-33
-3.03189e-30
-4.05499e-32
-2.49269e-29
-3.1207e-31
-1.98336e-28
-2.29273e-30
-1.48258e-27
-1.58243e-29
-9.40296e-27
-9.84507e-29
-5.6045e-28
-4.83344e-84
-2.05655e-86
-1.69844e-81
-7.46494e-84
-2.88513e-79
-1.31314e-81
-3.20243e-77
-1.51683e-79
-2.63612e-75
-1.29521e-77
-1.723e-73
-8.81313e-76
-9.33743e-72
-4.9807e-74
-4.32213e-70
-2.40528e-72
-1.74679e-68
-1.01468e-70
-6.26976e-67
-3.80243e-69
-2.02252e-65
-1.28264e-67
-5.94724e-64
-3.93899e-66
-1.60532e-62
-1.1104e-64
-4.00781e-61
-2.89501e-63
-9.31428e-60
-7.02528e-62
-2.02626e-58
-1.5955e-60
-4.14606e-57
-3.40729e-59
-8.01289e-56
-6.87052e-58
-1.46809e-54
-1.31282e-56
-2.55818e-53
-2.38472e-55
-4.25168e-52
-4.12944e-54
-6.75662e-51
-6.83335e-53
-1.02895e-49
-1.08293e-51
-1.50449e-48
-1.64667e-50
-2.11564e-47
-2.40635e-49
-2.86528e-46
-3.3843e-48
-3.74193e-45
-4.58617e-47
-4.71691e-44
-5.9942e-46
-5.74392e-43
-7.56235e-45
-6.76372e-42
-9.21478e-44
-7.67284e-41
-1.08524e-42
-8.42007e-40
-1.23637e-41
-9.45147e-39
-1.37116e-40
-1.03508e-37
-1.46365e-39
-1.09472e-36
-1.5047e-38
-1.11814e-35
-1.48911e-37
-1.10283e-34
-1.4176e-36
-1.05008e-33
-1.29691e-35
-9.64688e-33
-1.13876e-34
-8.55436e-32
-9.5809e-34
-7.36817e-31
-7.71685e-33
-6.20224e-30
-5.9611e-32
-4.89523e-29
-4.34766e-31
-3.12512e-28
-2.74787e-30
-1.633e-29
-2.0107e-86
-6.2809e-89
-7.4205e-84
-2.39661e-86
-1.31398e-81
-4.40089e-84
-1.52482e-79
-5.31547e-82
-1.31331e-77
-4.7854e-80
-8.97951e-76
-3.41896e-78
-5.09202e-74
-2.02671e-76