/*--------------------------------*- C++ -*----------------------------------*\
| =========                 |                                                 |
| \\      /  F ield         | OpenFOAM: The Open Source CFD Toolbox           |
|  \\    /   O peration     | Version:  5.0                                   |
|   \\  /    A nd           | Web:      www.OpenFOAM.org                      |
|    \\/     M anipulation  |                                                 |
\*---------------------------------------------------------------------------*/
FoamFile
{
    version     2.0;
    format      ascii;
    class       volScalarField;
    location    "0.35";
    object      epsilon;
}
// * * * * * * * * * * * * * * * * * * * * * * * * * * * * * * * * * * * * * //

dimensions      [0 2 -3 0 0 0 0];

internalField   nonuniform List<scalar> 
1915
(
0.332766
0.341474
0.349759
0.357749
0.365666
0.373846
0.382765
0.393062
0.405575
0.421368
0.441774
0.468436
0.503341
0.548863
0.607752
0.683051
0.777908
0.89523
1.03732
1.2058
1.40236
1.63099
1.9016
2.23257
2.64517
1.28646
0.451508
0.300008
0.246835
0.223444
0.213116
0.209839
0.210891
0.214834
0.2208
0.228214
0.23666
0.245809
0.255395
0.265188
0.274992
0.284638
0.293982
0.302909
0.311339
0.319218
0.326562
0.333437
0.339987
0.346446
0.35316
0.360611
0.369436
0.380462
0.39473
0.41354
0.438508
0.471565
0.515061
0.571736
0.644683
0.737186
0.852314
0.992601
1.15995
1.35646
1.58711
1.8647
2.21505
2.67424
1.29615
0.449902
0.29804
0.245068
0.221793
0.211443
0.20801
0.208788
0.212346
0.217829
0.224668
0.232451
0.240855
0.249617
0.258512
0.267346
0.275952
0.284191
0.291954
0.299164
0.305784
0.311833
0.317385
0.322594
0.327702
0.333056
0.339136
0.346567
0.35615
0.36889
0.386035
0.409125
0.440038
0.481056
0.534889
0.604665
0.693916
0.805767
0.943066
1.10806
1.30325
1.53396
1.81437
2.17532
2.6663
1.29732
0.446459
0.295228
0.242796
0.219807
0.209534
0.206013
0.206563
0.20977
0.214792
0.221071
0.228203
0.235874
0.243825
0.251837
0.259722
0.26732
0.274498
0.281153
0.287216
0.29266
0.29751
0.30185
0.305837
0.309712
0.313823
0.318633
0.324744
0.332923
0.344125
0.359535
0.380618
0.409178
0.447423
0.498017
0.564076
0.64906
0.756456
0.889431
1.05065
1.24325
1.47197
1.75067
2.11147
2.61271
1.29038
0.441042
0.291437
0.239891
0.217358
0.207266
0.203725
0.204096
0.206991
0.211585
0.217334
0.223844
0.23081
0.237983
0.245152
0.252136
0.258783
0.264967
0.270595
0.275606
0.27998
0.28375
0.287003
0.289897
0.292671
0.295659
0.299305
0.304178
0.310999
0.320663
0.334282
0.353232
0.379224
0.414374
0.461273
0.523011
0.603104
0.705259
0.833012
0.989432
1.17746
1.40185
1.67463
2.02519
2.5146
1.27573
0.433674
0.286625
0.236284
0.214364
0.204546
0.20105
0.201292
0.203917
0.208122
0.213378
0.219305
0.22561
0.232054
0.238435
0.244583
0.250354
0.255632
0.26033
0.264398
0.267823
0.270641
0.272941
0.27488
0.276688
0.27868
0.281273
0.284999
0.290522
0.298672
0.310475
0.327208
0.350466
0.382249
0.425037
0.481853
0.556224
0.652018
0.773106
0.923004
1.10494
1.32334
1.58831
1.92478
2.38555
1.25381
0.424433
0.280793
0.231941
0.21077
0.201309
0.197916
0.198075
0.200472
0.204329
0.209135
0.214527
0.220223
0.225997
0.231658
0.237046
0.242027
0.246496
0.250374
0.253617
0.256219
0.258219
0.259706
0.260829
0.261806
0.262931
0.264589
0.267267
0.271572
0.278259
0.288263
0.302749
0.323185
0.35142
0.389787
0.441175
0.50905
0.597343
0.71017
0.851443
1.0247
1.23399
1.48718
1.80352
2.22612
1.22517
0.413445
0.273976
0.22686
0.206554
0.197518
0.194276
0.194395
0.196603
0.200152
0.204554
0.209459
0.214604
0.219772
0.224787
0.229499
0.233784
0.237546
0.240715
0.243255
0.245162
0.246478
0.247288
0.247733
0.248014
0.248401
0.249245
0.250986
0.25417
0.259475
0.267741
0.280014
0.297618
0.322234
0.356003
0.401621
0.462398
0.542206
0.645275
0.775808
0.937632
1.13446
1.37191
1.66304
2.03866
1.19047
0.400882
0.266249
0.221071
0.201722
0.193162
0.190111
0.190223
0.192277
0.195556
0.199597
0.204067
0.208718
0.213349
0.217793
0.221913
0.225597
0.228756
0.231328
0.233283
0.234621
0.235381
0.235646
0.235545
0.235261
0.235039
0.235193
0.236115
0.238292
0.242323
0.248952
0.259104
0.27395
0.294986
0.324127
0.363823
0.417133
0.487746
0.579841
0.697768
0.845595
1.02689
1.24557
1.50908
1.83582
1.15049
0.38696
0.257713
0.214633
0.196304
0.188258
0.185423
0.185553
0.187481
0.190526
0.194246
0.19833
0.202545
0.206703
0.210651
0.214264
0.217437
0.220093
0.222176
0.223659
0.224545
0.224872
0.224716
0.224193
0.223469
0.222762
0.22235
0.222579
0.223875
0.226763
0.23189
0.240063
0.252298
0.269894
0.294525
0.328346
0.374094
0.435147
0.515466
0.619367
0.751073
0.914234
1.11185
1.34759
1.62985
1.1061
0.371929
0.248502
0.207628
0.190359
0.182844
0.18024
0.180404
0.182228
0.185066
0.188502
0.192244
0.196076
0.199823
0.203346
0.206529
0.209279
0.211525
0.213217
0.214333
0.214877
0.214883
0.214419
0.21359
0.212543
0.211471
0.210614
0.210277
0.210827
0.212718
0.216506
0.222881
0.23271
0.247097
0.267465
0.295652
0.334019
0.385534
0.453784
0.542842
0.656925
0.799857
0.974524
1.18287
1.42737
1.05828
0.356071
0.238768
0.200162
0.183964
0.176981
0.174609
0.174815
0.176548
0.179201
0.182383
0.185824
0.189319
0.192713
0.195874
0.1987
0.201104
0.203024
0.204416
0.205258
0.205556
0.205341
0.204671
0.203642
0.202379
0.201052
0.199868
0.199089
0.199032
0.200081
0.20271
0.207498
0.215171
0.226647
0.243105
0.266065
0.297489
0.339873
0.396305
0.470422
0.566201
0.687523
0.837548
1.01811
1.22961
1.00804
0.339679
0.228681
0.192355
0.177214
0.170749
0.168599
0.168843
0.170492
0.172976
0.175928
0.179099
0.1823
0.185388
0.188245
0.190775
0.192903
0.194571
0.19574
0.196391
0.196528
0.196178
0.195393
0.194254
0.192872
0.19139
0.189988
0.188888
0.188359
0.188724
0.19038
0.193806
0.199601
0.208513
0.221491
0.239756
0.26488
0.298873
0.344257
0.404086
0.481855
0.581229
0.705554
0.857184
1.03681
0.956402
0.323057
0.218416
0.184338
0.170218
0.164239
0.16229
0.162562
0.164127
0.166449
0.169189
0.172116
0.175057
0.177881
0.18048
0.182769
0.184678
0.186157
0.187169
0.187698
0.187745
0.187333
0.186508
0.185338
0.183919
0.182372
0.18085
0.17954
0.178667
0.178502
0.179371
0.181666
0.185872
0.192586
0.202558
0.216739
0.236345
0.262928
0.298443
0.3453
0.406343
0.484724
0.583612
0.7057
0.852556
0.904386
0.306501
0.208151
0.176248
0.16309
0.157555
0.155777
0.156059
0.157531
0.159694
0.162234
0.164936
0.167644
0.170236
0.172616
0.174707
0.176446
0.177786
0.178695
0.179156
0.179171
0.178757
0.177953
0.176817
0.17543
0.173893
0.172336
0.170915
0.169817
0.169264
0.169522
0.170911
0.173813
0.178699
0.186148
0.196883
0.211817
0.232099
0.259177
0.294836
0.341222
0.4008
0.476204
0.569966
0.68408
0.852946
0.290288
0.198056
0.168218
0.155946
0.150802
0.149159
0.149427
0.150794
0.152795
0.15514
0.157631
0.160125
0.162511
0.164703
0.166629
0.168234
0.169475
0.170322
0.170759
0.170785
0.170415
0.16968
0.168628
0.167326
0.165862
0.16434
0.162892
0.161671
0.160858
0.160669
0.161358
0.163226
0.166637
0.17203
0.179944
0.191044
0.206156
0.2263
0.252734
0.286965
0.330751
0.386036
0.454814
0.538892
0.802949
0.274669
0.188287
0.160375
0.148903
0.144089
0.142539
0.142765
0.144011
0.145844
0.147995
0.150282
0.152575
0.154774
0.156799
0.158586
0.160084
0.161254
0.162069
0.162512
0.162581
0.162287
0.161654
0.160723
0.159548
0.158202
0.156772
0.155365
0.154107
0.153145
0.152651
0.152825
0.153903
0.156161
0.159928
0.165598
0.173645
0.184644
0.199293
0.21843
0.243055
0.274324
0.313526
0.362017
0.4211
0.755144
0.259857
0.178982
0.152835
0.142065
0.137518
0.136017
0.136172
0.137278
0.138933
0.140888
0.142976
0.145076
0.147099
0.148972
0.150636
0.152046
0.153165
0.153967
0.154436
0.154568
0.15437
0.153862
0.153075
0.152054
0.150858
0.14956
0.148247
0.14702
0.145999
0.145319
0.145138
0.145636
0.147024
0.149544
0.153479
0.159161
0.166983
0.177406
0.190969
0.2083
0.230108
0.257173
0.290311
0.330306
0.710139
0.246024
0.170255
0.145698
0.13553
0.131185
0.129689
0.129744
0.130691
0.132157
0.133911
0.1358
0.137712
0.139566
0.141295
0.142848
0.14418
0.145258
0.146058
0.146563
0.146768
0.146677
0.146303
0.145672
0.14482
0.143795
0.142655
0.141472
0.140328
0.139316
0.138547
0.138141
0.138237
0.138992
0.140585
0.143216
0.147115
0.152546
0.159805
0.169228
0.181192
0.196107
0.214408
0.236531
0.262879
0.668398
0.233298
0.162196
0.139048
0.129382
0.125175
0.123643
0.123569
0.124339
0.125605
0.127153
0.12884
0.130566
0.132255
0.133846
0.13529
0.13655
0.137592
0.138393
0.138937
0.139216
0.139232
0.138994
0.138521
0.137843
0.136996
0.136029
0.134998
0.13397
0.13302
0.132233
0.131704
0.13154
0.131856
0.132782
0.134461
0.137051
0.140723
0.145668
0.152089
0.160201
0.17023
0.182396
0.196906
0.213929
0.630235
0.221766
0.15487
0.13295
0.12369
0.119562
0.117954
0.117727
0.118304
0.11936
0.120696
0.12218
0.123719
0.125243
0.126697
0.128036
0.129222
0.130227
0.131027
0.131606
0.131955
0.132072
0.131964
0.131644
0.131134
0.130464
0.129672
0.128804
0.127912
0.127057
0.126305
0.12573
0.125412
0.125439
0.125904
0.126909
0.12856
0.130971
0.134259
0.138544
0.143946
0.150579
0.158544
0.167919
0.17875
0.59583
0.211474
0.148319
0.127452
0.118507
0.114405
0.112688
0.112286
0.112656
0.113493
0.114613
0.115893
0.117244
0.118604
0.11992
0.121151
0.122262
0.123225
0.124018
0.124624
0.125033
0.125241
0.12525
0.12507
0.124718
0.124215
0.123593
0.122888
0.12214
0.121399
0.120715
0.120147
0.119756
0.119606
0.119767
0.120309
0.121305
0.122829
0.124953
0.127746
0.131272
0.135581
0.140712
0.146679
0.153468
0.56525
0.202439
0.142566
0.122586
0.113873
0.10975
0.107897
0.107302
0.107454
0.108068
0.108969
0.110043
0.111207
0.112401
0.113578
0.114699
0.11573
0.116646
0.117423
0.118045
0.118501
0.118785
0.118896
0.11884
0.118629
0.118279
0.117815
0.117264
0.11666
0.116039
0.115443
0.114917
0.114506
0.114261
0.11423
0.114466
0.115016
0.11593
0.117252
0.11902
0.121264
0.124004
0.127244
0.130971
0.135149
0.538474
0.194656
0.137623
0.118373
0.109818
0.105633
0.103619
0.102818
0.102746
0.103134
0.103815
0.104683
0.10566
0.106689
0.107726
0.108734
0.10968
0.110541
0.111292
0.111919
0.112407
0.11275
0.112945
0.112994
0.112905
0.11269
0.112367
0.111958
0.111488
0.110986
0.110485
0.11002
0.109626
0.109339
0.109198
0.109239
0.109495
0.109998
0.110776
0.111848
0.113228
0.114919
0.11691
0.119177
0.121679
0.515427
0.18811
0.133492
0.114825
0.10636
0.102078
0.0998838
0.0988666
0.0985665
0.0987264
0.0991896
0.0998534
0.100645
0.101511
0.102407
0.103299
0.104157
0.104955
0.105671
0.106289
0.106796
0.107181
0.107441
0.107575
0.107587
0.107486
0.107285
0.107
0.10665
0.10626
0.105853
0.105457
0.105099
0.104807
0.10461
0.104532
0.104599
0.104832
0.105246
0.105854
0.106657
0.107653
0.108824
0.110146
0.111578
0.496009
0.182788
0.130176
0.111952
0.103514
0.0991011
0.0967104
0.0954694
0.0949385
0.0948719
0.0951196
0.0955832
0.0961931
0.0968971
0.0976539
0.0984291
0.0991937
0.0999227
0.100595
0.101193
0.101703
0.102114
0.10242
0.102619
0.102711
0.102703
0.102603
0.102422
0.102178
0.101885
0.101565
0.101238
0.100926
0.100649
0.100429
0.100286
0.100236
0.100293
0.100469
0.100769
0.101191
0.101729
0.102366
0.103078
0.103831
0.480128
0.178687
0.127685
0.109768
0.101292
0.0967161
0.0941119
0.0926396
0.0918762
0.0915849
0.091621
0.0918889
0.0923214
0.0928673
0.0934863
0.0941447
0.094814
0.0954695
0.09609
0.0966576
0.0971577
0.0975791
0.097914
0.0981581
0.0983104
0.0983736
0.0983533
0.0982581
0.0980993
0.0978902
0.0976457
0.097382
0.0971157
0.0968634
0.096641
0.0964633
0.0963429
0.0962899
0.0963111
0.0964089
0.0965811
0.0968195
0.0971097
0.0974302
0.0977525
0.467733
0.175829
0.126044
0.108292
0.0997102
0.0949346
0.0920972
0.0903843
0.0893859
0.0888715
0.0886998
0.0887775
0.0890377
0.0894302
0.0899146
0.0904577
0.0910307
0.0916092
0.0921718
0.0927002
0.0931795
0.0935975
0.0939453
0.094217
0.0944101
0.0945248
0.0945643
0.0945344
0.094443
0.0943002
0.0941174
0.093907
0.0936821
0.0934555
0.0932397
0.093046
0.0928841
0.0927613
0.0926822
0.0926481
0.0926562
0.0926992
0.0927646
0.0928346
0.0928856
0.458838
0.174269
0.1253
0.107557
0.0987904
0.0937697
0.0906732
0.0887064
0.0874675
0.0867301
0.0863544
0.0862469
0.0863408
0.0865853
0.0869396
0.0873699
0.0878474
0.0883471
0.0888475
0.0893301
0.0897792
0.0901821
0.090529
0.0908129
0.0910296
0.0911777
0.0912581
0.0912745
0.0912322
0.0911386
0.0910022
0.0908328
0.0906404
0.0904352
0.0902273
0.0900254
0.0898373
0.0896687
0.0895231
0.0894012
0.0893006
0.0892149
0.0891341
0.0890433
0.0889235
0.453568
0.174111
0.125525
0.107614
0.0985631
0.093238
0.0898466
0.0876055
0.0861166
0.0851538
0.0845761
0.0842884
0.0842221
0.0843247
0.0845541
0.0848756
0.0852595
0.0856804
0.0861163
0.0865482
0.0869601
0.0873387
0.0876733
0.0879561
0.0881816
0.088347
0.0884515
0.0884968
0.0884863
0.0884252
0.0883197
0.0881774
0.0880062
0.0878143
0.0876097
0.0873999
0.0871912
0.0869884
0.0867947
0.0866108
0.0864348
0.0862617
0.0860833
0.0858876
0.0856592
0.452197
0.175521
0.12683
0.10853
0.0990681
0.0933589
0.089623
0.0870784
0.0853244
0.0841305
0.0833514
0.0828877
0.0826673
0.0826346
0.0827454
0.0829631
0.0832569
0.0836005
0.0839713
0.0843498
0.0847196
0.0850669
0.0853804
0.0856514
0.0858735
0.0860427
0.0861568
0.0862158
0.0862216
0.0861774
0.0860879
0.0859585
0.0857958
0.0856062
0.0853967
0.0851735
0.0849424
0.0847078
0.084473
0.0842391
0.084005
0.0837672
0.0835193
0.0832517
0.0829514
0.455209
0.178748
0.129366
0.110395
0.100353
0.0941524
0.0900051
0.0871172
0.0850767
0.0836429
0.0826615
0.0820258
0.0816577
0.0814971
0.0814964
0.0816166
0.0818251
0.0820945
0.0824014
0.0827258
0.0830509
0.0833623
0.0836484
0.0838997
0.0841091
0.0842713
0.0843832
0.0844435
0.0844523
0.0844115
0.0843241
0.0841942
0.0840268
0.0838274
0.0836019
0.083356
0.0830952
0.0828241
0.0825464
0.082264
0.0819772
0.0816837
0.081379
0.0810556
0.0807026
0.463386
0.184155
0.133335
0.113317
0.102466
0.0956328
0.0909869
0.087705
0.0853516
0.0836672
0.0824824
0.0816793
0.0811711
0.0808913
0.0807876
0.0808179
0.0809474
0.0811473
0.0813933
0.0816648
0.0819446
0.082218
0.082473
0.0826995
0.0828896
0.0830374
0.0831386
0.0831905
0.0831921
0.0831438
0.0830471
0.0829048
0.0827207
0.0824992
0.0822456
0.0819652
0.0816635
0.0813457
0.0810162
0.0806784
0.0803341
0.0799829
0.0796221
0.0792461
0.0788463
0.477952
0.192266
0.138995
0.117412
0.105448
0.0977969
0.0925446
0.0888096
0.0861147
0.0841698
0.0827831
0.08182
0.0811818
0.0807938
0.0805978
0.0805476
0.0806062
0.0807429
0.0809327
0.0811544
0.0813905
0.0816261
0.0818488
0.0820481
0.0822158
0.0823448
0.08243
0.0824677
0.0824554
0.0823922
0.082278
0.0821144
0.0819038
0.0816496
0.0813562
0.0810288
0.0806729
0.0802944
0.0798991
0.0794919
0.0790768
0.0786559
0.0782288
0.0777924
0.0773401
0.500827
0.203824
0.146665
0.122789
0.109302
0.100605
0.0946217
0.0903725
0.0873122
0.0851039
0.0835234
0.0824136
0.0816606
0.0811792
0.0809044
0.0807858
0.0807833
0.0808652
0.0810052
0.0811822
0.0813782
0.0815783
0.08177
0.0819427
0.0820874
0.0821967
0.0822645
0.082286
0.0822574
0.0821762
0.082041
0.0818516
0.0816088
0.0813148
0.0809728
0.0805875
0.0801643
0.0797098
0.0792309
0.0787349
0.0782283
0.0777165
0.0772025
0.0766865
0.0761646
0.535083
0.219894
0.156702
0.129503
0.113963
0.103949
0.0971089
0.092297
0.0888637
0.0864047
0.0846516
0.0834189
0.0825738
0.0820196
0.0816839
0.0815117
0.0814608
0.081498
0.0815967
0.0817355
0.0818967
0.0820657
0.0822299
0.0823788
0.0825032
0.0825951
0.0826478
0.0826552
0.0826125
0.0825156
0.0823614
0.0821476
0.0818732
0.0815386
0.0811452
0.0806963
0.0801966
0.0796526
0.0790723
0.078465
0.0778404
0.0772079
0.0765754
0.0759479
0.0753258
0.585831
0.241971
0.169436
0.13747
0.119222
0.107612
0.0998185
0.0944338
0.0906551
0.0879863
0.0861034
0.0847868
0.0838835
0.0832847
0.082911
0.082704
0.0826197
0.0826243
0.0826915
0.0828002
0.0829336
0.0830772
0.0832193
0.0833494
0.0834583
0.083538
0.083581
0.0835807
0.083531
0.0834262
0.0832614
0.0830322
0.0827354
0.0823684
0.0819304
0.081422
0.0808458
0.080207
0.0795131
0.0787745
0.0780035
0.0772141
0.0764205
0.0756348
0.074865
0.662404
0.272055
0.184965
0.146292
0.124626
0.111212
0.10246
0.0965727
0.0925374
0.0897437
0.0878039
0.0864629
0.0855486
0.0849419
0.0845588
0.0843392
0.0842387
0.0842243
0.0842709
0.0843586
0.0844715
0.0845965
0.0847225
0.0848399
0.0849398
0.0850142
0.0850558
0.0850572
0.0850115
0.0849119
0.0847516
0.0845243
0.0842239
0.083845
0.0833829
0.0828344
0.0821984
0.0814761
0.0806719
0.0797944
0.0788563
0.0778747
0.07687
0.0758641
0.0748767
0.783022
0.312438
0.202675
0.154965
0.129337
0.114149
0.104631
0.0984484
0.0943375
0.0915629
0.089676
0.0883926
0.0875277
0.0869576
0.086598
0.08639
0.0862916
0.0862722
0.0863089
0.0863841
0.0864837
0.0865964
0.0867122
0.0868226
0.0869199
0.0869965
0.0870453
0.0870592
0.0870309
0.0869529
0.0868174
0.0866161
0.0863408
0.0859828
0.0855335
0.084985
0.08433
0.0835633
0.0826823
0.0816885
0.0805891
0.0793984
0.078139
0.0768415
0.0755412
0.980696
0.364463
0.220192
0.161412
0.131985
0.115593
0.105841
0.0997772
0.09589
0.0933446
0.0916561
0.0905305
0.0897842
0.0892986
0.0889959
0.0888231
0.0887437
0.0887314
0.0887671
0.0888364
0.0889278
0.089032
0.0891412
0.0892484
0.089347
0.0894309
0.0894936
0.089529
0.08953
0.0894895
0.0893995
0.0892511
0.0890347
0.0887397
0.0883544
0.0878661
0.0872615
0.0865268
0.0856487
0.0846155
0.0834193
0.0820592
0.0805452
0.078904
0.077181
1.31281
0.424175
0.231187
0.161868
0.130622
0.114582
0.105634
0.10035
0.0971018
0.0950461
0.0937197
0.0928555
0.0922938
0.0919354
0.0917173
0.0915978
0.0915489
0.091551
0.0915901
0.0916556
0.0917393
0.0918348
0.0919362
0.0920386
0.0921372
0.0922274
0.0923045
0.0923634
0.0923988
0.0924045
0.0923738
0.0922988
0.0921706
0.0919787
0.0917108
0.0913527
0.0908873
0.0902946
0.0895512
0.0886296
0.0874993
0.0861277
0.0844857
0.0825573
0.0803564
1.91449
0.467398
0.221323
0.150618
0.12316
0.110438
0.103861
0.100198
0.0980455
0.0967309
0.0959065
0.0953823
0.0950495
0.0948432
0.0947231
0.0946636
0.0946476
0.0946634
0.0947028
0.0947598
0.0948295
0.0949083
0.094993
0.0950806
0.0951684
0.0952538
0.0953338
0.0954054
0.0954653
0.0955096
0.0955339
0.0955329
0.0955007
0.0954298
0.0953112
0.0951337
0.0948834
0.0945422
0.094086
0.0934826
0.0926872
0.0916377
0.0902489
0.0884091
0.0859922
3.30997
0.386606
0.165218
0.122639
0.10918
0.103717
0.10114
0.0997944
0.0990377
0.0985901
0.0983169
0.0981481
0.0980449
0.0979849
0.0979545
0.0979452
0.0979513
0.0979691
0.097996
0.09803
0.0980696
0.0981138
0.0981615
0.0982119
0.0982641
0.0983172
0.0983705
0.0984229
0.0984734
0.0985207
0.0985635
0.0986002
0.0986287
0.0986468
0.0986515
0.0986396
0.0986065
0.0985463
0.0984509
0.0983076
0.0980951
0.0977749
0.0972721
0.0964397
0.0949958
)
;

boundaryField
{
    leftWall
    {
        Cmu             0.09;
        kappa           0.41;
        E               9.8;
        type            epsilonWallFunction;
        value           nonuniform List<scalar> 
42
(
1.28646
1.29615
1.29732
1.29038
1.27573
1.25381
1.22517
1.19047
1.15049
1.1061
1.05828
1.00804
0.956402
0.904386
0.852946
0.802949
0.755144
0.710139
0.668398
0.630235
0.59583
0.56525
0.538474
0.515427
0.496009
0.480128
0.467733
0.458838
0.453568
0.452197
0.455209
0.463386
0.477952
0.500827
0.535083
0.585831
0.662404
0.783022
0.980696
1.31281
1.91449
3.30997
)
;
    }
    rightWall
    {
        Cmu             0.09;
        kappa           0.41;
        E               9.8;
        type            epsilonWallFunction;
        value           nonuniform 0();
    }
    lowerWall
    {
        Cmu             0.09;
        kappa           0.41;
        E               9.8;
        type            epsilonWallFunction;
        value           nonuniform 0();
    }
    atmosphere
    {
        type            inletOutlet;
        inletValue      uniform 0.1;
        value           uniform 0.1;
    }
    defaultFaces
    {
        type            empty;
    }
    procBoundary2to0
    {
        type            processor;
        value           nonuniform List<scalar> 
46
(
0.346172
0.356285
0.366033
0.375531
0.384986
0.394716
0.405179
0.417006
0.431027
0.448311
0.4702
0.49835
0.534768
0.581832
0.642273
0.719081
0.815302
0.933707
1.07644
1.24488
1.44022
1.66502
1.92544
2.23175
2.59201
1.27043
0.452918
0.301569
0.248332
0.224943
0.214721
0.211653
0.213013
0.217355
0.22381
0.231798
0.240898
0.250781
0.261178
0.271859
0.282626
0.293311
0.303768
0.313882
0.323569
0.323569
)
;
    }
    procBoundary2to3
    {
        type            processor;
        value           nonuniform List<scalar> 
43
(
3.14154
3.26374
3.33298
3.32484
3.23072
3.05864
2.8337
2.56065
2.26691
1.98
1.71522
1.47224
1.24319
1.02399
0.819498
0.639594
0.49188
0.377858
0.293802
0.233593
0.191051
0.161044
0.139727
0.124365
0.113075
0.104585
0.0980446
0.0928917
0.0887532
0.0853802
0.0826038
0.0803077
0.0784118
0.0768626
0.0756293
0.0747049
0.0741126
0.0739208
0.0742718
0.0754375
0.0779439
0.0828909
0.0924043
)
;
    }
}


// ************************************************************************* //
