/*--------------------------------*- C++ -*----------------------------------*\
| =========                 |                                                 |
| \\      /  F ield         | OpenFOAM: The Open Source CFD Toolbox           |
|  \\    /   O peration     | Version:  5.0                                   |
|   \\  /    A nd           | Web:      www.OpenFOAM.org                      |
|    \\/     M anipulation  |                                                 |
\*---------------------------------------------------------------------------*/
FoamFile
{
    version     2.0;
    format      ascii;
    class       volScalarField;
    location    "0.35";
    object      k;
}
// * * * * * * * * * * * * * * * * * * * * * * * * * * * * * * * * * * * * * //

dimensions      [0 2 -2 0 0 0 0];

internalField   nonuniform List<scalar> 
1915
(
0.216387
0.219385
0.22205
0.22444
0.22663
0.228721
0.230835
0.233122
0.235755
0.238929
0.242857
0.247761
0.253866
0.261387
0.270507
0.281351
0.293948
0.308196
0.323849
0.340569
0.358088
0.376498
0.396612
0.420083
0.448748
0.0469894
0.0782809
0.0964008
0.109018
0.119203
0.128099
0.136225
0.143841
0.15108
0.158008
0.164648
0.171003
0.177057
0.18279
0.188176
0.193191
0.197814
0.20203
0.205831
0.209217
0.212197
0.214801
0.21707
0.219065
0.220867
0.222581
0.224334
0.22628
0.228594
0.231472
0.235127
0.239785
0.245668
0.252996
0.261958
0.272694
0.285254
0.29955
0.315347
0.332311
0.350183
0.369116
0.390154
0.415536
0.448119
0.0472055
0.0787347
0.0968279
0.109377
0.119468
0.128243
0.136219
0.143655
0.150687
0.157382
0.163766
0.169844
0.175603
0.181024
0.186083
0.190758
0.19503
0.198884
0.202314
0.205322
0.207922
0.210144
0.212032
0.213651
0.215086
0.216443
0.217855
0.219475
0.22148
0.224064
0.227438
0.231825
0.237451
0.244537
0.253286
0.263858
0.276347
0.290676
0.306643
0.323932
0.342282
0.361835
0.383729
0.41061
0.446314
0.0472171
0.0789271
0.0969973
0.109497
0.119516
0.128193
0.136039
0.143314
0.150154
0.156629
0.162768
0.168576
0.174046
0.17916
0.183898
0.188239
0.192167
0.195669
0.19874
0.201386
0.203623
0.205484
0.207014
0.208282
0.209374
0.210399
0.211489
0.212798
0.2145
0.216789
0.219872
0.223969
0.229309
0.236117
0.244611
0.254971
0.267309
0.281614
0.29773
0.315371
0.334292
0.354523
0.377128
0.40487
0.442318
0.0470337
0.0788528
0.09689
0.109349
0.119313
0.127909
0.135644
0.142776
0.149441
0.155711
0.161618
0.167171
0.172364
0.177184
0.181614
0.185636
0.189236
0.192403
0.195137
0.197444
0.199344
0.20087
0.202072
0.203017
0.203795
0.204513
0.205303
0.206317
0.207725
0.209717
0.212496
0.216282
0.221301
0.227786
0.235968
0.246054
0.258191
0.272429
0.288668
0.306662
0.326126
0.347027
0.370197
0.39816
0.435818
0.0466645
0.0785056
0.0964906
0.108911
0.118829
0.127357
0.134996
0.142
0.148507
0.15459
0.160282
0.165596
0.170531
0.175076
0.179217
0.182941
0.186235
0.189093
0.191516
0.193513
0.195107
0.196331
0.197238
0.197895
0.198389
0.198829
0.199343
0.200078
0.201201
0.202897
0.205364
0.208817
0.213481
0.219596
0.227404
0.237136
0.248984
0.263054
0.279319
0.297589
0.317584
0.339171
0.362904
0.390852
0.4274
0.0461184
0.0778833
0.0957888
0.108164
0.118039
0.126507
0.134062
0.140954
0.147319
0.15323
0.158727
0.163822
0.16852
0.172812
0.176688
0.180139
0.183156
0.185734
0.187878
0.1896
0.190922
0.191882
0.192529
0.192932
0.193177
0.193369
0.193632
0.194109
0.194961
0.196364
0.198513
0.201616
0.205897
0.211596
0.218965
0.228257
0.239703
0.253468
0.269598
0.287981
0.308361
0.330514
0.354678
0.382313
0.417032
0.0454054
0.0769889
0.0947812
0.107099
0.116928
0.125341
0.13282
0.13961
0.145846
0.151604
0.156923
0.161821
0.166303
0.170367
0.174006
0.177213
0.179983
0.182316
0.184216
0.185698
0.186788
0.18752
0.187946
0.188134
0.188165
0.188141
0.188181
0.188421
0.189017
0.190137
0.191968
0.194711
0.198585
0.203829
0.210698
0.219461
0.230379
0.243671
0.25946
0.277718
0.298242
0.320748
0.345173
0.372297
0.404647
0.0445382
0.0758314
0.0934718
0.105715
0.115491
0.123847
0.131253
0.13795
0.14407
0.149689
0.154848
0.159569
0.16386
0.167721
0.171151
0.174145
0.176701
0.178821
0.180515
0.181796
0.182691
0.183235
0.18348
0.18349
0.183343
0.183136
0.182983
0.183014
0.183373
0.184223
0.185741
0.188121
0.191573
0.196329
0.202645
0.210794
0.221058
0.233697
0.248904
0.26674
0.287084
0.309648
0.33415
0.36074
0.390757
0.0435316
0.0744259
0.0918724
0.104019
0.113729
0.122023
0.129357
0.135965
0.141978
0.147471
0.152487
0.15705
0.161172
0.164856
0.168104
0.170915
0.173291
0.175234
0.176757
0.177875
0.178614
0.179011
0.179113
0.178983
0.178695
0.178341
0.178026
0.177874
0.17802
0.178619
0.179836
0.181856
0.184879
0.189127
0.194847
0.202308
0.211801
0.223611
0.237984
0.255068
0.274842
0.297079
0.321405
0.347525
0.375746
0.0424031
0.0727932
0.0900022
0.102026
0.111655
0.119878
0.127136
0.133657
0.139568
0.144945
0.149832
0.154255
0.158228
0.16176
0.164853
0.167511
0.169737
0.171538
0.172925
0.173917
0.174538
0.174825
0.174823
0.17459
0.174197
0.17373
0.173287
0.172982
0.172943
0.173312
0.174247
0.175918
0.178515
0.182245
0.18734
0.19406
0.202685
0.21351
0.226816
0.242815
0.261591
0.28303
0.306792
0.332394
0.359472
0.0411722
0.0709596
0.0878874
0.0997613
0.10929
0.117428
0.124603
0.131035
0.136847
0.142115
0.146884
0.151183
0.155027
0.158427
0.161391
0.163923
0.166029
0.167718
0.169004
0.169903
0.170442
0.170654
0.170584
0.170285
0.169823
0.169277
0.168738
0.168312
0.168117
0.168284
0.168959
0.1703
0.172482
0.175697
0.180158
0.186103
0.193796
0.203521
0.215566
0.230187
0.24755
0.267666
0.290324
0.315073
0.341301
0.0398605
0.0689564
0.085561
0.0972563
0.106663
0.114702
0.121784
0.128121
0.133834
0.138997
0.143656
0.147842
0.151572
0.154861
0.157716
0.160147
0.16216
0.163766
0.164979
0.165818
0.166307
0.166478
0.166372
0.16604
0.165542
0.164951
0.16435
0.163835
0.163515
0.163509
0.163952
0.164988
0.166777
0.169491
0.173324
0.178488
0.18522
0.193779
0.204439
0.217463
0.23307
0.251369
0.272301
0.295573
0.320641
0.0384908
0.0668187
0.0830609
0.0945491
0.103811
0.111733
0.118709
0.124943
0.130553
0.135613
0.140167
0.144249
0.147878
0.15107
0.153836
0.156186
0.15813
0.159678
0.160845
0.161651
0.162118
0.162277
0.162165
0.161831
0.161327
0.160721
0.160089
0.159517
0.159103
0.158957
0.159199
0.159961
0.161384
0.163625
0.166853
0.171253
0.177032
0.184413
0.193638
0.204953
0.218584
0.234697
0.253346
0.274411
0.29755
0.0370869
0.064585
0.0804299
0.0916832
0.100778
0.108563
0.115418
0.121539
0.127041
0.131994
0.136447
0.14043
0.143968
0.147075
0.149767
0.152053
0.153946
0.155456
0.1566
0.157395
0.157865
0.158036
0.157945
0.157634
0.157152
0.15656
0.155925
0.155326
0.15485
0.154595
0.15467
0.15519
0.156284
0.158088
0.160748
0.164424
0.169288
0.175527
0.183342
0.19294
0.204526
0.218271
0.234285
0.252565
0.272951
0.0356725
0.0622954
0.0777133
0.0887058
0.0976095
0.105239
0.111957
0.117953
0.123337
0.128181
0.13253
0.136419
0.13987
0.142902
0.14553
0.147766
0.149622
0.151112
0.15225
0.153054
0.153544
0.153749
0.153699
0.153433
0.152996
0.152441
0.15183
0.15123
0.150721
0.15039
0.15033
0.150647
0.151451
0.152861
0.155002
0.158009
0.162022
0.167193
0.17368
0.181646
0.191253
0.202648
0.21594
0.231175
0.248297
0.034271
0.0599909
0.074958
0.0856668
0.0943579
0.101812
0.108376
0.114234
0.119492
0.124219
0.128462
0.132256
0.135624
0.138585
0.141157
0.143352
0.145183
0.146663
0.147808
0.148634
0.149161
0.149414
0.149422
0.149218
0.148844
0.148347
0.147779
0.147204
0.146688
0.146309
0.14615
0.1463
0.146856
0.14792
0.149598
0.152002
0.155246
0.159447
0.164727
0.171206
0.179
0.188216
0.198935
0.211198
0.224984
0.0329039
0.0577114
0.0722111
0.0826165
0.0910752
0.098335
0.10473
0.110435
0.115556
0.120159
0.124292
0.127987
0.131272
0.134165
0.136684
0.138843
0.140656
0.142135
0.143295
0.144153
0.144726
0.145038
0.145114
0.144986
0.144688
0.144263
0.143758
0.143226
0.142727
0.142327
0.142099
0.142119
0.142469
0.143238
0.144513
0.146387
0.14895
0.152295
0.156509
0.161677
0.167877
0.175175
0.183617
0.193217
0.203951
0.0315906
0.0554946
0.0695178
0.0796048
0.0878141
0.0948631
0.101073
0.106613
0.111585
0.116056
0.120071
0.123665
0.126864
0.129688
0.132156
0.134281
0.136078
0.13756
0.13874
0.139634
0.14026
0.140637
0.140788
0.140742
0.14053
0.140188
0.139757
0.139284
0.138821
0.138423
0.138153
0.138077
0.138264
0.138787
0.139721
0.141139
0.143115
0.145717
0.149012
0.153056
0.157896
0.163567
0.170083
0.177435
0.185582
0.0303479
0.0533751
0.0669207
0.0766791
0.0846257
0.0914498
0.0974608
0.102823
0.107636
0.111965
0.115856
0.119343
0.122452
0.125205
0.12762
0.129711
0.131492
0.132976
0.134177
0.135109
0.135788
0.136232
0.136462
0.136502
0.136379
0.136126
0.135778
0.135375
0.134961
0.134584
0.134297
0.134156
0.134218
0.134544
0.135195
0.136231
0.13771
0.139684
0.142202
0.145299
0.149004
0.153329
0.158267
0.163793
0.169852
0.0291892
0.0513828
0.0644581
0.0738834
0.0815581
0.0881464
0.0939476
0.0991219
0.103766
0.107945
0.111704
0.115077
0.118092
0.120769
0.123127
0.12518
0.126943
0.128428
0.129647
0.130615
0.131345
0.131855
0.132161
0.132286
0.132254
0.132091
0.13183
0.131503
0.131148
0.130807
0.130523
0.130343
0.130314
0.130488
0.130912
0.131636
0.132704
0.134158
0.13603
0.138346
0.14112
0.14435
0.14802
0.152095
0.156517
0.0281247
0.0495426
0.0621632
0.071257
0.0786555
0.0850008
0.090584
0.0955616
0.100029
0.10405
0.10767
0.110924
0.113838
0.116434
0.11873
0.120741
0.122481
0.123961
0.125195
0.126193
0.12697
0.12754
0.127919
0.128125
0.12818
0.128106
0.127931
0.127683
0.127394
0.127098
0.126832
0.126635
0.126546
0.126606
0.126855
0.12733
0.128068
0.129099
0.130447
0.132128
0.134149
0.136503
0.139167
0.142106
0.145264
0.0271618
0.0478743
0.0600638
0.0688339
0.0759568
0.0820564
0.0874168
0.092192
0.0964764
0.100333
0.103809
0.106937
0.109745
0.112254
0.114482
0.116445
0.118156
0.119625
0.120866
0.121888
0.122705
0.123328
0.123772
0.124053
0.124189
0.1242
0.124108
0.123938
0.123716
0.123472
0.123236
0.123039
0.122915
0.122895
0.123011
0.123295
0.123773
0.124469
0.1254
0.126576
0.128
0.129661
0.131538
0.133596
0.135788
0.0263048
0.0463927
0.0581821
0.0666425
0.0734958
0.0793511
0.0844877
0.0890578
0.0931554
0.0968441
0.10017
0.103167
0.105863
0.108279
0.110434
0.112342
0.114016
0.115468
0.116708
0.117746
0.118593
0.119261
0.119762
0.120109
0.120318
0.120405
0.120391
0.120295
0.12014
0.119951
0.119751
0.119567
0.119426
0.119355
0.119377
0.119518
0.119798
0.120235
0.120842
0.121625
0.122583
0.123706
0.124975
0.12636
0.127819
0.0255566
0.0451081
0.0565353
0.0647057
0.0713006
0.0769176
0.0818329
0.0861982
0.0901078
0.0936256
0.0967981
0.0996603
0.10224
0.104558
0.106633
0.10848
0.11011
0.111536
0.112767
0.113811
0.11468
0.115382
0.115929
0.116332
0.116604
0.11676
0.116816
0.116788
0.116696
0.11656
0.116401
0.116239
0.116096
0.115994
0.115953
0.115991
0.116126
0.116369
0.11673
0.117214
0.117817
0.118532
0.11934
0.120217
0.121128
0.0249185
0.0440283
0.0551367
0.0630421
0.0693942
0.074783
0.0794831
0.0836468
0.0873696
0.0907162
0.0937339
0.0964583
0.0989172
0.101133
0.103122
0.104901
0.106481
0.107873
0.109085
0.110127
0.111007
0.111733
0.112315
0.112763
0.113088
0.113302
0.113418
0.113451
0.113417
0.113332
0.113213
0.113077
0.112943
0.112827
0.112746
0.112714
0.112744
0.112846
0.113026
0.113288
0.113628
0.114038
0.114505
0.115006
0.115516
0.0243917
0.0431594
0.0539971
0.0616669
0.0677958
0.0729697
0.0774637
0.0814318
0.084971
0.0881478
0.0910104
0.0935955
0.0959312
0.0980399
0.0999396
0.101645
0.103167
0.104516
0.105702
0.106731
0.107612
0.108351
0.108958
0.109439
0.109806
0.110067
0.110234
0.110319
0.110335
0.110295
0.110215
0.110107
0.109987
0.109869
0.109765
0.109687
0.109645
0.109647
0.109698
0.109799
0.109948
0.110138
0.110357
0.110588
0.110809
0.0239784
0.042508
0.0531271
0.0605937
0.0665219
0.0714968
0.0757958
0.0795759
0.0829365
0.0859463
0.0886551
0.0911003
0.093311
0.09531
0.0971152
0.0987411
0.100199
0.101499
0.10265
0.103657
0.104529
0.105271
0.105891
0.106395
0.106791
0.107089
0.107296
0.107423
0.107481
0.107481
0.107435
0.107354
0.107251
0.107137
0.107021
0.106915
0.106825
0.106758
0.106719
0.106706
0.10672
0.106754
0.106798
0.106839
0.106859
0.0236822
0.0420829
0.0525385
0.0598368
0.0655883
0.0703811
0.0744974
0.078098
0.0812859
0.0841323
0.0866889
0.0889946
0.0910792
0.092966
0.0946732
0.0962152
0.0976036
0.0988476
0.0999549
0.100932
0.101786
0.102521
0.103143
0.103659
0.104075
0.104397
0.104634
0.104794
0.104885
0.104917
0.1049
0.104843
0.104756
0.104648
0.104528
0.104404
0.104283
0.10417
0.104067
0.103976
0.103895
0.10382
0.103743
0.103653
0.103536
0.0235098
0.0418978
0.0522476
0.0594131
0.0650118
0.0696393
0.0735846
0.077014
0.0800348
0.0827214
0.0851277
0.0872943
0.089252
0.0910246
0.0926306
0.0940846
0.0953979
0.0965796
0.0976369
0.0985761
0.0994024
0.100121
0.100736
0.101254
0.101679
0.102016
0.102273
0.102456
0.102571
0.102628
0.102632
0.102594
0.10252
0.102418
0.102297
0.102162
0.102019
0.101873
0.101727
0.101581
0.101434
0.101284
0.101123
0.100944
0.100736
0.0234725
0.0419731
0.0522771
0.0593447
0.0648127
0.0692894
0.0730732
0.0763378
0.0791957
0.081725
0.0839823
0.0860098
0.0878395
0.089496
0.0909979
0.09236
0.0935934
0.0947071
0.095708
0.0966019
0.0973935
0.0980871
0.0986869
0.0991969
0.0996213
0.0999646
0.100232
0.100428
0.10056
0.100632
0.100652
0.100626
0.100561
0.100464
0.10034
0.100196
0.100036
0.0998654
0.099686
0.0994993
0.0993052
0.0991011
0.0988827
0.0986431
0.0983731
0.0235878
0.0423391
0.0526586
0.0596608
0.0650161
0.069352
0.07298
0.0760827
0.0787791
0.0811514
0.0832592
0.0851466
0.0868466
0.0883844
0.0897791
0.0910454
0.0921945
0.093235
0.0941738
0.095016
0.0957659
0.0964274
0.0970038
0.0974983
0.0979141
0.0982548
0.0985242
0.0987263
0.0988656
0.098947
0.0989754
0.0989564
0.0988953
0.0987977
0.0986691
0.0985145
0.0983386
0.0981453
0.0979377
0.0977177
0.0974856
0.0972402
0.0969783
0.0966948
0.0963821
0.0238821
0.0430387
0.0534359
0.0603998
0.0656533
0.0698515
0.073323
0.0762616
0.0787936
0.0810061
0.0829615
0.0847058
0.0862729
0.0876887
0.0889725
0.0901391
0.0911994
0.092162
0.0930333
0.0938182
0.0945206
0.0951436
0.09569
0.0961623
0.0965628
0.0968941
0.0971587
0.0973598
0.0975005
0.0975844
0.0976152
0.0975973
0.0975349
0.0974326
0.0972951
0.0971269
0.0969324
0.0967156
0.0964798
0.0962277
0.0959605
0.0956781
0.0953789
0.0950592
0.094713
0.0243943
0.0441322
0.0546671
0.0616105
0.0667623
0.0708155
0.074121
0.0768863
0.0792457
0.0812912
0.0830881
0.0846839
0.0861134
0.0874027
0.0885713
0.0896337
0.0906009
0.091481
0.0922801
0.0930028
0.0936525
0.0942319
0.094743
0.0951876
0.0955674
0.0958839
0.0961387
0.0963336
0.0964708
0.0965524
0.0965812
0.09656
0.0964921
0.0963811
0.0962306
0.0960449
0.0958279
0.0955837
0.0953162
0.0950286
0.0947236
0.0944023
0.0940648
0.0937087
0.09333
0.0251828
0.0457021
0.056427
0.063352
0.0683856
0.0722726
0.0753916
0.0779657
0.0801377
0.0820042
0.083633
0.0850723
0.0863576
0.0875148
0.0885631
0.0895167
0.0903863
0.0911795
0.0919022
0.0925585
0.0931513
0.0936828
0.0941546
0.0945676
0.0949227
0.0952207
0.0954621
0.0956478
0.0957785
0.0958553
0.0958796
0.0958529
0.0957773
0.0956551
0.0954892
0.0952827
0.0950393
0.0947632
0.0944583
0.094129
0.093779
0.0934115
0.0930282
0.0926289
0.0922114
0.0263369
0.0478607
0.0588096
0.0656912
0.0705665
0.0742476
0.0771461
0.0795014
0.0814644
0.0831354
0.084583
0.0858559
0.0869889
0.0880074
0.0889299
0.0897699
0.0905376
0.0912402
0.0918828
0.0924692
0.0930018
0.0934823
0.0939116
0.0942902
0.0946182
0.0948955
0.0951219
0.095297
0.0954205
0.0954923
0.0955124
0.0954809
0.0953983
0.0952658
0.0950846
0.094857
0.0945857
0.0942742
0.0939268
0.0935483
0.0931438
0.0927184
0.0922763
0.0918202
0.0913501
0.0279984
0.0507603
0.0619263
0.0686967
0.0733407
0.0767534
0.0793824
0.081482
0.0832086
0.0846635
0.0859149
0.0870101
0.0879824
0.0888556
0.0896471
0.0903694
0.0910316
0.0916403
0.0921999
0.0927137
0.0931836
0.0936107
0.0939955
0.0943379
0.0946374
0.0948932
0.0951042
0.0952692
0.0953869
0.095456
0.0954749
0.0954426
0.0953579
0.0952201
0.0950289
0.0947848
0.0944888
0.0941433
0.0937517
0.0933188
0.0928504
0.0923535
0.0918353
0.0913019
0.0907574
0.0304127
0.0546105
0.0659021
0.072426
0.0767224
0.079779
0.0820754
0.0838749
0.0853341
0.0865515
0.0875919
0.088499
0.0893032
0.090026
0.0906828
0.0912843
0.0918387
0.0923513
0.0928261
0.0932654
0.0936708
0.0940428
0.0943816
0.0946865
0.0949567
0.0951907
0.0953869
0.0955435
0.0956581
0.0957285
0.0957521
0.0957262
0.0956483
0.0955156
0.0953258
0.095077
0.094768
0.0943984
0.0939696
0.0934845
0.0929485
0.0923691
0.0917558
0.0911194
0.0904694
0.0340245
0.0596995
0.0708621
0.0769047
0.0806852
0.0832736
0.0851647
0.0866176
0.0877801
0.0887418
0.08956
0.0902724
0.0909049
0.0914752
0.091996
0.0924763
0.0929222
0.0933382
0.0937272
0.094091
0.0944306
0.0947461
0.0950374
0.0953035
0.0955432
0.0957549
0.0959367
0.0960861
0.0962005
0.0962769
0.096312
0.096302
0.0962429
0.0961304
0.09596
0.0957271
0.0954273
0.0950568
0.0946125
0.0940934
0.0935008
0.0928398
0.0921196
0.0913538
0.0905592
0.0395384
0.0663998
0.0768934
0.0820877
0.0851322
0.0871264
0.0885418
0.0896098
0.090456
0.0911534
0.0917468
0.0922653
0.0927283
0.0931492
0.093537
0.0938984
0.0942377
0.0945582
0.0948617
0.0951494
0.0954219
0.0956792
0.0959206
0.0961453
0.0963521
0.0965393
0.0967049
0.0968465
0.0969616
0.0970468
0.0970986
0.0971129
0.0970849
0.0970094
0.0968803
0.0966909
0.0964336
0.0961005
0.0956831
0.0951733
0.0945644
0.0938524
0.0930388
0.0921332
0.091155
0.0479795
0.0751493
0.083951
0.0877852
0.0898521
0.0911439
0.09204
0.0927109
0.0932432
0.093685
0.0940648
0.0944009
0.0947052
0.0949858
0.0952483
0.0954966
0.0957336
0.095961
0.09618
0.0963911
0.0965947
0.0967905
0.096978
0.0971564
0.0973247
0.0974816
0.0976253
0.0977539
0.0978651
0.0979563
0.0980243
0.0980653
0.0980751
0.0980486
0.0979795
0.0978605
0.0976829
0.0974359
0.0971067
0.09668
0.0961381
0.0954613
0.094631
0.0936344
0.0924724
0.0615609
0.0863511
0.0916144
0.0935278
0.0944654
0.0950363
0.0954386
0.0957497
0.0960056
0.0962253
0.0964204
0.096598
0.096763
0.0969189
0.0970682
0.0972125
0.0973531
0.0974909
0.0976263
0.0977595
0.0978907
0.0980197
0.098146
0.0982693
0.0983888
0.0985038
0.0986131
0.0987155
0.0988096
0.0988937
0.0989656
0.099023
0.099063
0.0990819
0.0990754
0.0990382
0.0989632
0.0988415
0.098661
0.0984052
0.0980514
0.0975678
0.096911
0.0960244
0.0948435
0.0883
0.0988005
0.0984291
0.0984026
0.098411
0.0984465
0.0984973
0.0985536
0.0986107
0.0986667
0.0987211
0.0987741
0.0988259
0.0988771
0.0989279
0.0989786
0.0990294
0.0990806
0.0991323
0.0991845
0.0992371
0.0992902
0.0993437
0.0993973
0.0994509
0.0995042
0.0995569
0.0996086
0.0996589
0.0997071
0.0997527
0.0997948
0.0998327
0.0998651
0.0998908
0.0999081
0.0999152
0.0999092
0.0998864
0.099841
0.0997634
0.099636
0.0994252
0.0990663
0.098435
)
;

boundaryField
{
    leftWall
    {
        type            kqRWallFunction;
        value           nonuniform List<scalar> 
42
(
0.0469894
0.0472055
0.0472171
0.0470337
0.0466645
0.0461184
0.0454054
0.0445382
0.0435316
0.0424031
0.0411722
0.0398605
0.0384908
0.0370869
0.0356725
0.034271
0.0329039
0.0315906
0.0303479
0.0291892
0.0281247
0.0271618
0.0263048
0.0255566
0.0249185
0.0243917
0.0239784
0.0236822
0.0235098
0.0234725
0.0235878
0.0238821
0.0243943
0.0251828
0.0263369
0.0279984
0.0304127
0.0340245
0.0395384
0.0479795
0.0615609
0.0883
)
;
    }
    rightWall
    {
        type            kqRWallFunction;
        value           nonuniform 0();
    }
    lowerWall
    {
        type            kqRWallFunction;
        value           nonuniform 0();
    }
    atmosphere
    {
        type            inletOutlet;
        inletValue      uniform 0.1;
        value           uniform 0.1;
    }
    defaultFaces
    {
        type            empty;
    }
    procBoundary2to0
    {
        type            processor;
        value           nonuniform List<scalar> 
46
(
0.220413
0.22381
0.22688
0.229675
0.232267
0.234749
0.237239
0.239879
0.242839
0.246309
0.250498
0.255629
0.261926
0.2696
0.278832
0.28974
0.30235
0.316556
0.332117
0.3487
0.366015
0.384048
0.403297
0.424783
0.449449
0.0466199
0.0775452
0.0957347
0.108454
0.118762
0.127806
0.136103
0.143914
0.151371
0.158539
0.16544
0.172073
0.178422
0.184464
0.190173
0.195524
0.200497
0.205074
0.209246
0.213015
0.213015
)
;
    }
    procBoundary2to3
    {
        type            processor;
        value           nonuniform List<scalar> 
43
(
0.482818
0.489136
0.493499
0.493819
0.488974
0.478862
0.464853
0.447233
0.427651
0.407777
0.388305
0.368482
0.346775
0.32218
0.295094
0.267125
0.240195
0.215743
0.194449
0.176369
0.161213
0.148575
0.138055
0.129305
0.122035
0.116002
0.110996
0.106838
0.103376
0.100484
0.0980622
0.0960317
0.094333
0.0929225
0.0917709
0.0908634
0.0902024
0.0898124
0.0897513
0.090131
0.0911672
0.0933052
0.0972831
)
;
    }
}


// ************************************************************************* //
