/*--------------------------------*- C++ -*----------------------------------*\
| =========                 |                                                 |
| \\      /  F ield         | OpenFOAM: The Open Source CFD Toolbox           |
|  \\    /   O peration     | Version:  5.0                                   |
|   \\  /    A nd           | Web:      www.OpenFOAM.org                      |
|    \\/     M anipulation  |                                                 |
\*---------------------------------------------------------------------------*/
FoamFile
{
    version     2.0;
    format      ascii;
    class       volScalarField;
    location    "0.35";
    object      nut;
}
// * * * * * * * * * * * * * * * * * * * * * * * * * * * * * * * * * * * * * //

dimensions      [0 2 -1 0 0 0 0];

internalField   nonuniform List<scalar> 
1915
(
0.0126638
0.0126852
0.0126875
0.0126726
0.0126414
0.0125939
0.0125289
0.0124436
0.0123337
0.0121932
0.0120155
0.0117939
0.0115237
0.0112033
0.0108361
0.01043
0.00999664
0.00954906
0.00909942
0.00865718
0.00822925
0.00782198
0.00744484
0.0071139
0.00685163
0.000154471
0.00122149
0.00278786
0.00433344
0.0057233
0.00692978
0.00795925
0.00882979
0.00956217
0.0101765
0.0106909
0.0111205
0.0114781
0.0117743
0.0120175
0.012215
0.0123727
0.0124955
0.0125878
0.0126532
0.012695
0.012716
0.0127183
0.0127036
0.0126727
0.0126254
0.0125601
0.0124737
0.0123612
0.0122163
0.0120318
0.0118007
0.0115186
0.0111843
0.0108022
0.0103812
0.0099341
0.00947502
0.00901663
0.00856831
0.00813629
0.00772611
0.00734691
0.00701577
0.00675816
0.00015473
0.0012401
0.00283119
0.00439344
0.00579154
0.00700032
0.00802847
0.00889567
0.00962385
0.0102337
0.0107436
0.011169
0.0115226
0.0118151
0.0120552
0.01225
0.0124054
0.0125266
0.0126177
0.0126825
0.0127242
0.0127454
0.0127485
0.0127349
0.0127054
0.0126594
0.0125952
0.0125091
0.0123959
0.0122487
0.0120599
0.0118225
0.0115319
0.0111876
0.0107945
0.0103626
0.00990476
0.00943734
0.00897359
0.00852287
0.00809062
0.00768159
0.00730411
0.00697557
0.00672379
0.000154665
0.00125578
0.00286817
0.0044443
0.00584866
0.00705856
0.00808493
0.00894891
0.00967334
0.0102794
0.0107857
0.0112077
0.0115583
0.0118481
0.0120859
0.0122788
0.0124328
0.012553
0.0126436
0.0127085
0.0127507
0.0127731
0.0127777
0.0127661
0.0127388
0.0126954
0.0126336
0.0125498
0.0124381
0.0122914
0.0121015
0.0118612
0.0115657
0.0112145
0.0108131
0.0103726
0.00990794
0.00943556
0.00896965
0.00851975
0.00808973
0.00768479
0.00731166
0.00698695
0.0067394
0.000154292
0.00126881
0.00289905
0.00448602
0.00589447
0.00710424
0.0081283
0.00898913
0.00971026
0.0103132
0.0108167
0.0112362
0.0115846
0.0118727
0.012109
0.0123008
0.0124541
0.012574
0.0126649
0.0127304
0.0127738
0.0127978
0.0128046
0.0127958
0.0127717
0.0127319
0.0126742
0.0125946
0.0124871
0.0123441
0.0121572
0.0119185
0.0116228
0.0112695
0.0108641
0.0104182
0.00994796
0.00947111
0.00900301
0.00855415
0.00812952
0.00773158
0.00736528
0.00704518
0.00679805
0.000153624
0.00127903
0.00292346
0.00451806
0.00592834
0.00713666
0.0081579
0.00901562
0.00973387
0.0103344
0.0108358
0.0112537
0.0116009
0.0118879
0.0121236
0.0123151
0.0124684
0.0125886
0.0126802
0.0127469
0.012792
0.0128183
0.0128278
0.0128223
0.0128023
0.0127672
0.0127149
0.0126415
0.0125408
0.0124051
0.0122255
0.0119936
0.0117035
0.0113539
0.0109499
0.0105032
0.0100308
0.00955157
0.00908245
0.0086352
0.00821522
0.00782363
0.00746258
0.00714308
0.00689166
0.000152671
0.00128624
0.00294094
0.00453976
0.00594952
0.00715503
0.00817286
0.00902747
0.00974324
0.0103419
0.0108421
0.0112592
0.0116059
0.0118929
0.0121286
0.0123204
0.0124744
0.0125955
0.0126884
0.0127568
0.012804
0.0128328
0.0128456
0.0128439
0.0128285
0.012799
0.0127534
0.0126879
0.0125965
0.0124715
0.0123036
0.012084
0.0118057
0.0114665
0.0110705
0.0106287
0.0101585
0.00967973
0.00921115
0.00876626
0.00835148
0.00796728
0.00761286
0.00729391
0.00703125
0.000151447
0.00129027
0.00295103
0.00455049
0.00595726
0.00715852
0.00817233
0.00902379
0.00973741
0.0103349
0.0108345
0.0112516
0.0115986
0.0118862
0.0121227
0.0123156
0.0124707
0.0125934
0.012688
0.0127584
0.0128081
0.0128398
0.0128561
0.0128585
0.0128482
0.0128249
0.0127869
0.0127308
0.0126509
0.0125395
0.0123875
0.0121855
0.0119255
0.0116038
0.011223
0.010793
0.0103303
0.00985568
0.00938944
0.00894737
0.00853782
0.00816172
0.0078161
0.00750098
0.00722852
0.000149965
0.00129099
0.00295336
0.00454971
0.00595091
0.00714643
0.00815554
0.00900373
0.00971547
0.0103122
0.0108119
0.0112297
0.0115778
0.0118667
0.0121048
0.0122993
0.0124562
0.0125808
0.0126776
0.0127505
0.0128029
0.0128378
0.0128577
0.0128645
0.0128594
0.0128426
0.0128127
0.0127669
0.0127
0.0126048
0.0124722
0.0122925
0.0120569
0.0117601
0.0114025
0.0109918
0.0105434
0.0100776
0.0096161
0.00917717
0.00877197
0.00840336
0.00806785
0.00776098
0.00748557
0.000148242
0.00128832
0.00294765
0.004537
0.00592999
0.00711822
0.00812189
0.00896663
0.00967669
0.0102731
0.0107735
0.0111926
0.0115425
0.0118334
0.0120736
0.0122703
0.0124296
0.0125567
0.0126561
0.0127317
0.0127871
0.0128252
0.0128489
0.0128601
0.0128603
0.0128499
0.0128284
0.0127933
0.0127402
0.0126626
0.012552
0.0123986
0.0121928
0.0119277
0.0116013
0.0112186
0.0107924
0.0103417
0.0098887
0.00945382
0.00905159
0.0086882
0.00836179
0.00806599
0.00779625
0.0001463
0.00128222
0.00293372
0.00451209
0.0058942
0.00707355
0.00807098
0.00891203
0.00962051
0.0102169
0.0107185
0.0111395
0.0114918
0.0117853
0.0120283
0.0122278
0.01239
0.0125199
0.0126222
0.0127009
0.0127595
0.0128011
0.0128285
0.012844
0.0128493
0.0128452
0.0128318
0.0128072
0.012768
0.0127086
0.0126212
0.0124965
0.0123247
0.0120972
0.0118097
0.0114639
0.0110691
0.0106418
0.0102033
0.00977505
0.00937501
0.00901351
0.00869237
0.00840643
0.00814769
0.000144162
0.00127271
0.00291152
0.00447493
0.00584345
0.00701231
0.00800268
0.00883973
0.00954667
0.0101434
0.0106465
0.0110699
0.0114251
0.0117218
0.011968
0.0121709
0.0123364
0.0124697
0.0125753
0.0126574
0.0127193
0.0127645
0.0127956
0.0128152
0.0128253
0.0128272
0.0128211
0.0128064
0.0127804
0.0127386
0.0126745
0.0125794
0.0124437
0.0122581
0.0120159
0.0117155
0.0113621
0.0109684
0.010553
0.0101371
0.00974086
0.00937869
0.00905733
0.0087755
0.00852612
0.000141857
0.00125986
0.00288114
0.00442563
0.00577792
0.00693469
0.00791712
0.0087498
0.00945516
0.0100524
0.0105574
0.0109836
0.0113421
0.0116424
0.0118925
0.0120992
0.0122685
0.0124055
0.0125148
0.0126004
0.0126659
0.0127147
0.0127496
0.0127732
0.0127877
0.0127948
0.0127954
0.0127894
0.0127752
0.0127497
0.0127074
0.012641
0.0125415
0.0123995
0.0122069
0.0119588
0.0116565
0.0113076
0.0109266
0.0105327
0.0101461
0.00978408
0.00945828
0.00917272
0.00892445
0.000139417
0.00124382
0.00284284
0.00436458
0.00569806
0.00684115
0.00781475
0.00864263
0.00934628
0.00994402
0.0104511
0.0108804
0.0112427
0.0115471
0.0118014
0.0120123
0.0121858
0.0123269
0.0124401
0.0125296
0.012599
0.0126514
0.01269
0.0127174
0.012736
0.0127477
0.012754
0.0127554
0.0127513
0.0127397
0.0127167
0.0126763
0.012611
0.0125117
0.0123698
0.0121782
0.0119343
0.0116409
0.0113074
0.0109485
0.0105824
0.0102273
0.00989793
0.00960342
0.0093463
0.000136876
0.00122482
0.00279704
0.00429238
0.0056046
0.00673248
0.00769634
0.00851892
0.00922065
0.0098189
0.0103282
0.0107609
0.0111272
0.0114359
0.0116948
0.0119103
0.0120883
0.0122338
0.0123514
0.012445
0.0125183
0.0125746
0.0126168
0.0126479
0.0126702
0.0126859
0.0126969
0.0127042
0.0127081
0.0127078
0.0127006
0.0126824
0.0126471
0.0125869
0.0124933
0.0123585
0.0121768
0.0119469
0.0116726
0.0113634
0.0110332
0.0106981
0.0103738
0.0100725
0.0098018
0.000134273
0.00120317
0.00274438
0.00420993
0.00549859
0.00660978
0.00756299
0.00837971
0.00907921
0.00967786
0.0101894
0.0106255
0.010996
0.0113094
0.011573
0.0117934
0.0119763
0.0121265
0.0122486
0.0123466
0.012424
0.0124842
0.0125301
0.0125647
0.0125904
0.0126096
0.0126244
0.0126363
0.0126462
0.0126542
0.0126591
0.0126583
0.0126473
0.0126201
0.0125694
0.0124873
0.0123668
0.0122035
0.0119965
0.0117498
0.0114717
0.0111744
0.0108713
0.0105752
0.0102963
0.000131646
0.00117925
0.0026857
0.00411842
0.00538142
0.00647452
0.00741612
0.00822637
0.00892324
0.00952204
0.0100357
0.0104752
0.01085
0.0111681
0.0114368
0.0116623
0.0118501
0.0120053
0.0121322
0.0122347
0.0123164
0.0123806
0.0124303
0.0124683
0.0124972
0.0125195
0.0125372
0.0125524
0.0125664
0.0125801
0.0125933
0.0126048
0.0126119
0.0126103
0.0125943
0.0125571
0.0124917
0.012392
0.0122541
0.0120772
0.0118644
0.0116223
0.0113604
0.0110891
0.0108184
0.000129035
0.00115354
0.00262205
0.00401933
0.0052548
0.00632848
0.00725754
0.00806061
0.00875435
0.00935296
0.0098685
0.0103113
0.0106903
0.0110132
0.011287
0.0115176
0.0117107
0.0118709
0.0120027
0.0121098
0.012196
0.0122643
0.0123178
0.0123592
0.0123912
0.0124161
0.0124363
0.0124538
0.0124704
0.0124874
0.0125055
0.0125246
0.0125434
0.0125594
0.0125687
0.0125661
0.0125455
0.0125008
0.0124265
0.012319
0.0121769
0.0120021
0.0117989
0.0115737
0.0113338
0.000126478
0.00112659
0.00255467
0.00391441
0.00512076
0.00617382
0.00708937
0.00788451
0.00857449
0.00917242
0.00968948
0.0101353
0.0105183
0.0108459
0.0111247
0.0113606
0.0115589
0.0117242
0.011861
0.0119729
0.0120635
0.0121361
0.0121934
0.0122382
0.0122731
0.0123005
0.0123226
0.0123417
0.0123597
0.0123782
0.0123985
0.0124212
0.0124462
0.0124725
0.0124976
0.0125183
0.01253
0.0125275
0.0125053
0.0124586
0.0123836
0.0122783
0.0121429
0.0119794
0.0117912
0.000124012
0.00109903
0.00248499
0.00380567
0.00498164
0.00601298
0.00691408
0.00770045
0.00838596
0.0089826
0.00950066
0.0099491
0.0103358
0.0106679
0.0109515
0.0111925
0.0113959
0.0115664
0.0117081
0.0118248
0.01192
0.0119967
0.0120578
0.012106
0.0121438
0.0121736
0.0121975
0.0122177
0.0122363
0.012255
0.0122754
0.0122987
0.0123255
0.0123558
0.0123887
0.0124222
0.0124535
0.0124788
0.0124936
0.0124932
0.0124731
0.0124295
0.0123598
0.0122623
0.0121371
0.00012167
0.00107148
0.00241453
0.00369528
0.00483998
0.00584869
0.00673442
0.00751114
0.00819136
0.00878597
0.00930438
0.00975488
0.0101449
0.010481
0.0107692
0.011015
0.0112234
0.0113988
0.0115454
0.0116668
0.0117665
0.0118473
0.0119123
0.0119639
0.0120045
0.0120366
0.0120621
0.0120832
0.012102
0.0121201
0.0121394
0.0121612
0.0121868
0.0122166
0.0122507
0.0122885
0.0123283
0.012368
0.0124043
0.0124334
0.0124514
0.0124541
0.0124376
0.0123986
0.0123345
0.00011948
0.00104458
0.00234485
0.00358551
0.00469848
0.00568388
0.0065534
0.00731956
0.0079936
0.00858531
0.00910328
0.00955514
0.00994775
0.0102874
0.0105797
0.01083
0.011043
0.0112232
0.0113744
0.0115004
0.0116043
0.0116893
0.011758
0.0118129
0.0118564
0.0118907
0.0119179
0.0119399
0.0119586
0.0119759
0.0119934
0.0120126
0.012035
0.0120614
0.0120926
0.0121285
0.0121687
0.0122119
0.0122564
0.0122995
0.0123381
0.0123687
0.0123875
0.0123908
0.0123749
0.000117467
0.00101895
0.00227746
0.00347862
0.00455988
0.00552155
0.00637417
0.00712891
0.00779582
0.0083837
0.00890032
0.00935268
0.00974714
0.0100896
0.0103854
0.0106396
0.0108568
0.0110413
0.0111969
0.0113271
0.0114352
0.011524
0.0115964
0.0116546
0.0117009
0.0117375
0.0117663
0.0117892
0.011808
0.0118243
0.0118399
0.0118562
0.0118746
0.0118963
0.011922
0.0119525
0.0119877
0.0120273
0.0120703
0.0121152
0.0121599
0.0122018
0.0122378
0.0122646
0.0122787
0.000115651
0.000995117
0.00221376
0.00337671
0.00442684
0.00536474
0.00619997
0.00694253
0.00760139
0.00818443
0.00869868
0.00915055
0.00954594
0.00989034
0.0101889
0.0104463
0.0106671
0.0108554
0.0110148
0.0111489
0.0112608
0.0113533
0.0114291
0.0114904
0.0115395
0.0115783
0.0116089
0.0116328
0.0116518
0.0116675
0.0116814
0.0116949
0.0117093
0.0117258
0.0117454
0.0117688
0.0117964
0.0118283
0.0118641
0.0119031
0.011944
0.0119849
0.0120237
0.0120578
0.0120842
0.000114046
0.00097351
0.0021549
0.00328165
0.00430179
0.0052163
0.00603397
0.00676378
0.00741375
0.00799096
0.00850178
0.00895208
0.00934733
0.00969267
0.00999297
0.0102528
0.0104764
0.0106677
0.0108305
0.0109679
0.0110832
0.011179
0.0112579
0.0113222
0.0113739
0.0114151
0.0114474
0.0114725
0.011492
0.0115074
0.01152
0.0115311
0.011542
0.0115538
0.0115674
0.0115836
0.011603
0.0116258
0.011652
0.0116814
0.011713
0.0117459
0.0117784
0.0118088
0.0118346
0.000112667
0.000954466
0.00210181
0.003195
0.00418688
0.0050789
0.0058792
0.00659595
0.00723637
0.00780683
0.00831315
0.00876072
0.00915465
0.00949979
0.00980076
0.0100619
0.0102874
0.010481
0.0106463
0.0107864
0.0109045
0.0110032
0.0110849
0.0111519
0.0112061
0.0112495
0.0112836
0.0113101
0.0113303
0.0113457
0.0113576
0.011367
0.0113752
0.0113831
0.0113916
0.0114014
0.0114132
0.0114272
0.0114437
0.0114626
0.0114833
0.0115053
0.0115274
0.0115484
0.0115665
0.000111525
0.000938213
0.00205515
0.00311797
0.00408388
0.00495483
0.00573844
0.00644219
0.00707262
0.00763556
0.00813636
0.00858003
0.0089714
0.00931506
0.00961545
0.00987678
0.010103
0.0102979
0.0104648
0.0106069
0.0107272
0.0108281
0.0109122
0.0109815
0.011038
0.0110835
0.0111194
0.0111473
0.0111686
0.0111845
0.0111961
0.0112046
0.0112109
0.0112158
0.0112204
0.0112251
0.0112305
0.0112371
0.0112451
0.0112544
0.0112648
0.0112759
0.011287
0.0112971
0.011305
0.000110633
0.000924898
0.00201535
0.00305142
0.00399423
0.00484608
0.00561418
0.00630539
0.00692573
0.00748057
0.00797493
0.00841355
0.00880105
0.00914187
0.00944031
0.00970047
0.00992621
0.0101212
0.0102887
0.0104319
0.0105535
0.0106561
0.010742
0.0108132
0.0108717
0.010919
0.0109567
0.0109862
0.0110087
0.0110254
0.0110374
0.0110455
0.0110507
0.0110538
0.0110556
0.0110566
0.0110573
0.0110581
0.0110593
0.0110608
0.0110627
0.0110645
0.0110658
0.011066
0.0110641
0.000110008
0.000914606
0.00198266
0.00299598
0.00391904
0.00475436
0.00550865
0.00618825
0.00679871
0.00734511
0.00783223
0.00826469
0.00864699
0.00898352
0.00927852
0.00953604
0.0097599
0.00995365
0.0101206
0.0102637
0.0103858
0.0104892
0.0105763
0.010649
0.010709
0.010758
0.0107974
0.0108284
0.0108523
0.0108701
0.0108828
0.0108912
0.0108962
0.0108984
0.0108986
0.0108971
0.0108946
0.0108914
0.0108876
0.0108834
0.0108788
0.0108735
0.0108672
0.0108594
0.0108495
0.000109672
0.0009074
0.00195724
0.00295216
0.00385934
0.00468122
0.00542393
0.00609327
0.00669442
0.00723225
0.00771146
0.00813667
0.0085124
0.00884312
0.00913308
0.00938636
0.00960677
0.00979787
0.00996289
0.0101048
0.0102263
0.0103296
0.0104171
0.0104906
0.0105517
0.010602
0.0106429
0.0106755
0.0107008
0.01072
0.0107338
0.010743
0.0107484
0.0107506
0.0107502
0.0107476
0.0107432
0.0107374
0.0107305
0.0107224
0.0107133
0.0107029
0.0106912
0.0106777
0.0106619
0.000109656
0.000903352
0.00193929
0.00292049
0.00381618
0.00462829
0.00536215
0.00602298
0.00661565
0.00714494
0.00761561
0.00803245
0.00840019
0.00872344
0.00900662
0.00925391
0.00946919
0.00965603
0.00981767
0.00995703
0.0100767
0.010179
0.0102661
0.0103396
0.0104013
0.0104525
0.0104946
0.0105285
0.0105554
0.010576
0.0105912
0.0106017
0.0106081
0.010611
0.0106109
0.0106081
0.0106031
0.0105962
0.0105875
0.0105772
0.0105653
0.0105518
0.0105365
0.0105192
0.0104996
0.000110004
0.000902578
0.00192913
0.00290182
0.00379101
0.00459758
0.00532578
0.00598013
0.00656528
0.00708607
0.00754752
0.00795475
0.00831288
0.00862683
0.00890132
0.00914071
0.00934902
0.00952987
0.00968652
0.00982188
0.00993849
0.0100386
0.0101242
0.0101971
0.0102587
0.0103103
0.0103531
0.0103882
0.0104165
0.0104387
0.0104555
0.0104676
0.0104755
0.0104797
0.0104807
0.0104787
0.010474
0.0104671
0.0104579
0.0104467
0.0104335
0.0104183
0.0104011
0.0103816
0.0103597
0.000110776
0.000905267
0.00192737
0.00289748
0.00378595
0.00459185
0.00531794
0.00596801
0.00654655
0.00705867
0.00750991
0.00790599
0.00825259
0.00855517
0.0088188
0.00904818
0.00924749
0.00942047
0.00957042
0.00970023
0.0098124
0.00990912
0.00999228
0.0100635
0.0101242
0.0101757
0.0102189
0.0102548
0.0102843
0.010308
0.0103265
0.0103404
0.0103502
0.0103562
0.0103589
0.0103584
0.0103551
0.0103491
0.0103406
0.0103296
0.0103164
0.0103008
0.0102829
0.0102625
0.0102395
0.000112055
0.0009117
0.00193506
0.00290965
0.00380424
0.00461503
0.00534287
0.00599075
0.00656322
0.00706599
0.00750548
0.00788832
0.00822101
0.0085097
0.00876003
0.00897703
0.00916514
0.00932824
0.00946966
0.00959229
0.00969856
0.00979059
0.00987017
0.00993882
0.00999786
0.0100484
0.0100914
0.0101278
0.0101582
0.0101832
0.0102034
0.0102192
0.0102311
0.0102393
0.0102442
0.0102459
0.0102447
0.0102406
0.0102337
0.0102242
0.010212
0.0101971
0.0101796
0.0101593
0.0101363
0.000113962
0.000922271
0.00195385
0.00294174
0.00385072
0.00467274
0.00540627
0.00605359
0.00661974
0.00711157
0.00753684
0.00790351
0.00821923
0.00849104
0.00872521
0.00892721
0.00910176
0.00925285
0.00938385
0.0094976
0.00959649
0.00968251
0.00975734
0.00982239
0.00987885
0.00992775
0.00996993
0.0100061
0.010037
0.010063
0.0100847
0.0101024
0.0101165
0.0101272
0.0101347
0.0101392
0.0101407
0.0101393
0.0101351
0.010128
0.0101179
0.0101049
0.0100888
0.0100697
0.0100475
0.000116668
0.000937531
0.00198639
0.002999
0.00393255
0.00477296
0.00551583
0.00616318
0.00672131
0.00719908
0.0076063
0.00795277
0.0082476
0.00849891
0.00871368
0.00889784
0.00905632
0.00919323
0.0093119
0.00941512
0.00950514
0.00958384
0.00965275
0.00971315
0.0097661
0.0098125
0.00985309
0.0098885
0.00991928
0.00994588
0.00996869
0.00998804
0.0100042
0.0100174
0.0100277
0.0100352
0.0100401
0.0100422
0.0100415
0.0100378
0.010031
0.010021
0.0100077
0.00999087
0.00997049
0.000120431
0.000958358
0.00203698
0.00308962
0.00406046
0.00492695
0.00568172
0.00632759
0.00687363
0.00733196
0.00771542
0.00803626
0.00830534
0.00853193
0.00872374
0.00888708
0.009027
0.00914761
0.00925215
0.00934326
0.00942304
0.00949318
0.00955505
0.00960977
0.00965826
0.00970127
0.00973945
0.00977331
0.00980331
0.00982984
0.00985321
0.00987371
0.00989155
0.00990693
0.00991994
0.00993066
0.00993908
0.00994511
0.00994861
0.00994936
0.0099471
0.00994153
0.00993235
0.00991928
0.0099021
0.000125669
0.000986595
0.00211325
0.00322709
0.00425089
0.00515073
0.00591715
0.0065562
0.00708223
0.00751256
0.00786424
0.00815247
0.00839004
0.00858731
0.00875251
0.00889213
0.00901119
0.00911362
0.00920248
0.00928013
0.00934847
0.00940896
0.00946277
0.00951085
0.00955394
0.00959268
0.00962757
0.00965903
0.00968743
0.00971307
0.00973623
0.00975714
0.009776
0.00979296
0.00980814
0.00982161
0.00983336
0.00984332
0.00985132
0.0098571
0.00986031
0.00986051
0.00985719
0.00984981
0.00983784
0.000133061
0.00102665
0.00222982
0.0034349
0.00453011
0.00546743
0.00623882
0.00685877
0.00735106
0.00774068
0.00804997
0.0082973
0.00849711
0.00866047
0.00879575
0.00890922
0.00900561
0.00908847
0.00916048
0.0092237
0.00927969
0.00932966
0.00937457
0.00941515
0.00945199
0.00948556
0.00951626
0.0095444
0.00957026
0.00959407
0.00961605
0.00963639
0.00965526
0.00967281
0.00968917
0.00970443
0.00971865
0.00973179
0.00974377
0.00975438
0.00976331
0.0097701
0.00977413
0.00977463
0.00977065
0.000143465
0.00108874
0.00241668
0.00375718
0.00494205
0.00591033
0.00666632
0.00724307
0.0076797
0.00801122
0.00826538
0.008463
0.00861922
0.00874492
0.00884789
0.00893373
0.00900647
0.00906908
0.00912372
0.009172
0.00921513
0.00925403
0.0092894
0.00932177
0.00935158
0.00937914
0.00940474
0.0094286
0.0094509
0.0094718
0.00949147
0.00951005
0.00952767
0.00954448
0.00956061
0.00957617
0.00959128
0.00960601
0.00962038
0.00963437
0.00964787
0.00966065
0.00967233
0.00968225
0.00968932
0.000157816
0.00119825
0.00274367
0.00428474
0.00556266
0.00652501
0.0072176
0.00770879
0.00805842
0.0083109
0.00849702
0.00863748
0.00874616
0.00883236
0.00890237
0.00896053
0.00900987
0.00905251
0.00908999
0.00912342
0.00915363
0.00918123
0.00920667
0.0092303
0.00925239
0.00927315
0.00929274
0.0093113
0.00932894
0.00934575
0.00936184
0.00937729
0.00939221
0.00940671
0.00942089
0.00943488
0.0094488
0.00946278
0.00947698
0.00949155
0.00950668
0.00952257
0.00953951
0.00955779
0.00957738
0.000178156
0.00143579
0.00341306
0.00522692
0.00652106
0.00736042
0.00789294
0.00823493
0.00846073
0.00861502
0.00872433
0.00880462
0.00886566
0.00891361
0.00895242
0.0089847
0.00901224
0.00903625
0.0090576
0.00907689
0.00909457
0.00911097
0.00912634
0.00914085
0.00915464
0.00916782
0.00918046
0.00919264
0.0092044
0.00921579
0.00922686
0.00923766
0.00924823
0.00925864
0.00926896
0.00927927
0.00928966
0.00930027
0.00931126
0.00932284
0.00933535
0.00934935
0.00936584
0.00938661
0.00941452
0.000212002
0.00227244
0.00527754
0.00710602
0.00798335
0.00840999
0.00863309
0.00875954
0.0088367
0.00888689
0.00892142
0.00894637
0.00896519
0.00897997
0.00899198
0.00900205
0.00901075
0.00901843
0.00902536
0.00903173
0.00903767
0.00904327
0.0090486
0.00905373
0.00905869
0.0090635
0.00906819
0.00907278
0.00907728
0.0090817
0.00908606
0.00909036
0.00909462
0.00909886
0.0091031
0.00910737
0.00911171
0.00911618
0.00912085
0.00912584
0.00913139
0.00913792
0.00914634
0.0091588
0.00917988
)
;

boundaryField
{
    leftWall
    {
        type            nutkWallFunction;
        Cmu             0.09;
        kappa           0.41;
        E               9.8;
        value           nonuniform List<scalar> 
42
(
1.3192e-05
1.32446e-05
1.32475e-05
1.32028e-05
1.31126e-05
1.29784e-05
1.28019e-05
1.2585e-05
1.23303e-05
1.20406e-05
1.17196e-05
1.13714e-05
1.10008e-05
1.0613e-05
1.02137e-05
9.80908e-06
9.40512e-06
9.00794e-06
8.62329e-06
8.25644e-06
7.91201e-06
7.59392e-06
7.30539e-06
7.049e-06
6.82694e-06
6.64117e-06
6.49377e-06
6.38723e-06
6.32489e-06
6.31137e-06
6.35316e-06
6.45922e-06
6.64206e-06
6.91931e-06
7.31629e-06
7.87065e-06
8.64356e-06
9.73693e-06
1.12849e-05
1.34321e-05
1.64743e-05
2.14978e-05
)
;
    }
    rightWall
    {
        type            nutkWallFunction;
        Cmu             0.09;
        kappa           0.41;
        E               9.8;
        value           nonuniform 0();
    }
    lowerWall
    {
        type            nutkWallFunction;
        Cmu             0.09;
        kappa           0.41;
        E               9.8;
        value           nonuniform 0();
    }
    atmosphere
    {
        type            calculated;
        value           uniform 0.009;
    }
    defaultFaces
    {
        type            empty;
    }
    procBoundary2to0
    {
        type            processor;
        value           nonuniform List<scalar> 
46
(
0.0126307
0.0126533
0.0126565
0.0126423
0.0126117
0.0125651
0.0125016
0.012419
0.0123133
0.0121793
0.0120107
0.0118013
0.0115461
0.0112431
0.0108945
0.0105071
0.0100912
0.00965903
0.00922226
0.00879062
0.00837168
0.0079725
0.00760261
0.00727666
0.007014
0.000153969
0.0011949
0.00273523
0.00426289
0.00564322
0.00684649
0.00787684
0.00875064
0.00948766
0.0101073
0.0106271
0.011062
0.0114247
0.0117254
0.0119728
0.012174
0.0123347
0.01246
0.0125543
0.0126211
0.0126211
)
;
    }
    procBoundary2to3
    {
        type            processor;
        value           nonuniform List<scalar> 
43
(
0.00667831
0.00659762
0.00657631
0.00660097
0.0066606
0.00674738
0.00686309
0.00703005
0.00726084
0.00755829
0.00791168
0.00830034
0.00870565
0.00912314
0.00956345
0.0100408
0.0105563
0.0110863
0.0115824
0.0119846
0.0122432
0.0123364
0.0122763
0.0120997
0.0118535
0.0115799
0.0113093
0.0110591
0.0108367
0.0106434
0.0104772
0.0103351
0.0102138
0.0101104
0.0100222
0.00994653
0.00988067
0.00982083
0.00976112
0.00969179
0.00959704
0.00945251
0.00921775
)
;
    }
}


// ************************************************************************* //
