/*--------------------------------*- C++ -*----------------------------------*\
| =========                 |                                                 |
| \\      /  F ield         | OpenFOAM: The Open Source CFD Toolbox           |
|  \\    /   O peration     | Version:  5.0                                   |
|   \\  /    A nd           | Web:      www.OpenFOAM.org                      |
|    \\/     M anipulation  |                                                 |
\*---------------------------------------------------------------------------*/
FoamFile
{
    version     2.0;
    format      ascii;
    class       volScalarField;
    location    "0.35";
    object      p;
}
// * * * * * * * * * * * * * * * * * * * * * * * * * * * * * * * * * * * * * //

dimensions      [1 -1 -2 0 0 0 0];

internalField   nonuniform List<scalar> 
1915
(
-4.08074
-4.12156
-4.16381
-4.20851
-4.2563
-4.30742
-4.3617
-4.41869
-4.47781
-4.53864
-4.60114
-4.66581
-4.73356
-4.80546
-4.88238
-4.96491
-5.0535
-5.14898
-5.25286
-5.36733
-5.49479
-5.637
-5.79419
-5.96455
-6.14333
-3.62734
-3.6318
-3.63703
-3.64437
-3.65384
-3.66571
-3.68023
-3.69763
-3.71807
-3.74165
-3.76836
-3.7981
-3.8306
-3.86547
-3.90221
-3.94027
-3.97912
-4.01833
-4.05758
-4.09673
-4.13599
-4.17592
-4.21751
-4.26156
-4.30855
-4.35864
-4.41169
-4.46734
-4.52518
-4.58498
-4.64686
-4.71133
-4.7792
-4.85134
-4.92853
-5.01137
-5.10055
-5.19716
-5.30294
-5.42015
-5.5512
-5.69799
-5.86111
-6.03895
-6.22661
-3.68772
-3.69206
-3.69833
-3.70655
-3.7167
-3.72905
-3.74386
-3.76135
-3.7817
-3.805
-3.83125
-3.86032
-3.89195
-3.92578
-3.96131
-3.99806
-4.03552
-4.07332
-4.11121
-4.14919
-4.18755
-4.22693
-4.26808
-4.31156
-4.35776
-4.40676
-4.45846
-4.51259
-4.56898
-4.62759
-4.6887
-4.75282
-4.82062
-4.89278
-4.96995
-5.0528
-5.1422
-5.23948
-5.34652
-5.46557
-5.599
-5.74884
-5.91612
-6.09976
-6.2951
-3.74591
-3.7506
-3.75773
-3.76675
-3.77752
-3.79029
-3.80533
-3.82286
-3.84306
-3.86602
-3.89171
-3.92001
-3.95067
-3.98332
-4.01753
-4.05284
-4.08882
-4.12516
-4.16173
-4.19863
-4.23619
-4.27498
-4.31556
-4.35837
-4.40369
-4.45155
-4.50185
-4.55447
-4.60937
-4.66671
-4.72685
-4.79031
-4.85765
-4.9294
-5.00613
-5.08857
-5.17773
-5.27505
-5.38241
-5.50202
-5.63622
-5.78719
-5.95635
-6.14318
-6.34369
-3.80229
-3.80742
-3.81529
-3.82501
-3.8363
-3.8494
-3.86458
-3.88208
-3.90206
-3.9246
-3.94969
-3.97718
-4.00684
-4.03831
-4.0712
-4.10508
-4.1396
-4.17453
-4.20982
-4.24562
-4.28229
-4.32031
-4.36014
-4.40213
-4.44644
-4.49308
-4.54197
-4.59305
-4.64643
-4.70238
-4.76133
-4.82378
-4.89017
-4.96098
-5.03672
-5.11817
-5.2064
-5.30287
-5.40937
-5.52801
-5.66114
-5.81109
-5.97951
-6.16639
-6.36851
-3.85707
-3.86263
-3.87114
-3.88145
-3.89314
-3.90647
-3.92172
-3.9391
-3.95879
-3.98086
-4.00529
-4.03195
-4.06061
-4.09092
-4.12251
-4.15502
-4.18814
-4.22169
-4.2557
-4.29036
-4.32602
-4.36312
-4.40204
-4.44304
-4.48622
-4.53154
-4.57894
-4.62843
-4.68019
-4.7346
-4.79209
-4.85314
-4.91811
-4.98741
-5.06155
-5.14131
-5.22778
-5.32234
-5.42664
-5.54265
-5.67266
-5.81911
-5.98382
-6.16731
-6.36742
-3.91049
-3.9164
-3.92545
-3.93622
-3.94821
-3.96167
-3.97689
-3.99408
-4.0134
-4.03495
-4.05869
-4.0845
-4.11214
-4.14131
-4.17165
-4.20283
-4.23459
-4.26681
-4.29953
-4.33298
-4.36753
-4.40356
-4.44141
-4.48127
-4.52319
-4.56709
-4.6129
-4.66069
-4.71071
-4.76336
-4.81912
-4.87838
-4.94145
-5.00868
-5.08055
-5.15785
-5.24164
-5.33318
-5.43392
-5.54562
-5.67048
-5.81088
-5.96879
-6.14512
-6.33857
-3.96274
-3.96893
-3.97838
-3.98949
-4.00167
-4.01516
-4.03025
-4.04716
-4.06607
-4.08704
-4.11005
-4.13499
-4.16163
-4.18968
-4.2188
-4.24869
-4.27912
-4.31001
-4.34143
-4.37363
-4.40696
-4.4418
-4.47843
-4.51701
-4.55752
-4.59986
-4.64397
-4.68993
-4.73804
-4.78872
-4.84243
-4.89952
-4.96022
-5.02482
-5.09377
-5.16784
-5.24802
-5.33543
-5.43128
-5.53712
-5.65493
-5.78695
-5.9352
-6.10096
-6.28383
-4.01399
-4.02036
-4.0301
-4.04143
-4.05368
-4.06709
-4.08197
-4.09854
-4.11695
-4.13729
-4.15955
-4.1836
-4.20923
-4.23617
-4.2641
-4.29273
-4.32187
-4.35143
-4.38153
-4.41242
-4.44445
-4.47797
-4.51324
-4.55039
-4.58935
-4.63
-4.67228
-4.71627
-4.76228
-4.81076
-4.86212
-4.91666
-4.97455
-5.03599
-5.1014
-5.1715
-5.2472
-5.32944
-5.41921
-5.51779
-5.6269
-5.74855
-5.88468
-6.03688
-6.20571
-4.06438
-4.07085
-4.08076
-4.09218
-4.10439
-4.11764
-4.13223
-4.14837
-4.16623
-4.1859
-4.20735
-4.23049
-4.25511
-4.28094
-4.3077
-4.33509
-4.36295
-4.3912
-4.41996
-4.44949
-4.48012
-4.5122
-4.54599
-4.58156
-4.61884
-4.65767
-4.69798
-4.73985
-4.78359
-4.82961
-4.87833
-4.92997
-4.98464
-5.04246
-5.10379
-5.16927
-5.2397
-5.31585
-5.39851
-5.48867
-5.58775
-5.6974
-5.81937
-5.95535
-6.1065
-4.11407
-4.12055
-4.1305
-4.1419
-4.15398
-4.16697
-4.18119
-4.19684
-4.21409
-4.23303
-4.25364
-4.27584
-4.29943
-4.32416
-4.34975
-4.37592
-4.40251
-4.42945
-4.45685
-4.48496
-4.51412
-4.54467
-4.57683
-4.61069
-4.64615
-4.68304
-4.72125
-4.76086
-4.80214
-4.8455
-4.8913
-4.93972
-4.99081
-5.04461
-5.1014
-5.16173
-5.22624
-5.29557
-5.37027
-5.45109
-5.5391
-5.63554
-5.74179
-5.85933
-5.98944
-4.16318
-4.16961
-4.17949
-4.19075
-4.2026
-4.21527
-4.22904
-4.24414
-4.26072
-4.27888
-4.29862
-4.31985
-4.34239
-4.366
-4.39042
-4.41538
-4.4407
-4.46633
-4.49235
-4.51901
-4.54663
-4.57554
-4.60597
-4.63798
-4.67149
-4.7063
-4.7423
-4.77951
-4.81819
-4.85869
-4.90133
-4.94626
-4.99347
-5.04294
-5.09485
-5.14961
-5.20776
-5.26972
-5.33588
-5.40674
-5.48299
-5.56545
-5.65506
-5.7528
-5.8597
-4.21187
-4.21817
-4.22787
-4.2389
-4.25044
-4.26271
-4.27598
-4.29047
-4.30634
-4.32368
-4.3425
-4.36272
-4.38418
-4.40667
-4.42991
-4.45366
-4.47772
-4.50203
-4.52666
-4.55184
-4.57786
-4.60505
-4.63363
-4.66368
-4.6951
-4.72772
-4.76138
-4.79609
-4.83203
-4.86952
-4.90882
-4.95005
-4.99315
-5.03804
-5.08483
-5.13378
-5.18528
-5.23961
-5.29697
-5.35761
-5.42187
-5.49016
-5.56292
-5.64064
-5.7238
-4.26026
-4.26638
-4.27582
-4.28653
-4.29769
-4.30949
-4.3222
-4.33604
-4.35115
-4.36763
-4.38549
-4.40467
-4.42503
-4.44637
-4.46843
-4.49095
-4.51376
-4.53676
-4.56
-4.58366
-4.60805
-4.63345
-4.66009
-4.68807
-4.71729
-4.74759
-4.77881
-4.81091
-4.84402
-4.87838
-4.91421
-4.95158
-4.99041
-5.03058
-5.0721
-5.11513
-5.15989
-5.20654
-5.25513
-5.30567
-5.3582
-5.41273
-5.46928
-5.52786
-5.58842
-4.30847
-4.31436
-4.32347
-4.33378
-4.3445
-4.35579
-4.3679
-4.38104
-4.39535
-4.41093
-4.42779
-4.44591
-4.46515
-4.48531
-4.50616
-4.52746
-4.54901
-4.5707
-4.59255
-4.61471
-4.63743
-4.661
-4.68564
-4.71146
-4.73839
-4.76627
-4.79495
-4.82436
-4.85455
-4.88571
-4.91799
-4.95143
-4.98592
-5.02131
-5.05752
-5.09462
-5.1327
-5.1718
-5.21185
-5.2527
-5.29413
-5.33585
-5.37752
-5.41874
-5.45907
-4.3566
-4.36223
-4.37094
-4.38081
-4.39103
-4.40176
-4.41324
-4.42564
-4.43912
-4.45376
-4.46961
-4.48663
-4.5047
-4.52367
-4.5433
-4.56336
-4.58365
-4.60403
-4.6245
-4.64516
-4.66623
-4.68796
-4.71057
-4.73417
-4.75873
-4.78412
-4.81019
-4.83682
-4.86405
-4.89198
-4.92069
-4.95019
-4.98035
-5.011
-5.04199
-5.0733
-5.1049
-5.13675
-5.16868
-5.20045
-5.23167
-5.26183
-5.29033
-5.31653
-5.33964
-4.40473
-4.41007
-4.41835
-4.42771
-4.4374
-4.44754
-4.45834
-4.46999
-4.48261
-4.49629
-4.51109
-4.52698
-4.54387
-4.56161
-4.58
-4.5988
-4.61782
-4.63691
-4.65602
-4.67521
-4.69465
-4.71456
-4.73514
-4.75651
-4.77867
-4.80152
-4.82491
-4.84875
-4.87299
-4.89768
-4.92285
-4.94847
-4.9744
-5.00043
-5.02639
-5.05216
-5.07764
-5.10269
-5.12711
-5.15056
-5.17259
-5.19258
-5.20981
-5.22347
-5.23255
-4.45291
-4.45796
-4.46576
-4.47459
-4.48371
-4.49322
-4.50334
-4.5142
-4.52594
-4.53865
-4.55238
-4.56712
-4.5828
-4.59929
-4.61641
-4.63394
-4.65168
-4.66947
-4.68724
-4.70499
-4.72285
-4.74098
-4.75958
-4.77875
-4.79852
-4.81882
-4.83954
-4.86056
-4.88183
-4.90332
-4.92503
-4.94688
-4.96871
-4.99032
-5.0115
-5.03208
-5.05189
-5.07073
-5.08834
-5.10436
-5.11832
-5.12956
-5.13736
-5.14085
-5.13894
-4.50119
-4.50593
-4.51324
-4.52151
-4.53004
-4.53892
-4.54832
-4.55839
-4.56924
-4.58096
-4.59361
-4.60718
-4.62163
-4.63685
-4.65267
-4.6689
-4.68535
-4.70185
-4.71828
-4.73463
-4.75096
-4.7674
-4.78408
-4.80113
-4.81857
-4.83637
-4.85445
-4.87269
-4.89103
-4.90941
-4.92777
-4.94601
-4.96395
-4.98138
-4.99809
-5.01386
-5.02849
-5.04174
-5.05332
-5.06285
-5.06985
-5.07373
-5.07378
-5.06918
-5.05894
-4.54961
-4.55404
-4.56085
-4.56854
-4.57647
-4.5847
-4.59338
-4.60265
-4.61261
-4.62334
-4.63489
-4.64729
-4.6605
-4.67442
-4.68893
-4.70384
-4.71898
-4.73418
-4.74929
-4.76427
-4.77914
-4.79396
-4.80883
-4.82386
-4.83908
-4.85447
-4.86998
-4.88553
-4.90103
-4.91641
-4.93158
-4.94642
-4.96072
-4.97427
-4.98686
-4.99825
-5.00822
-5.01653
-5.02285
-5.02683
-5.02798
-5.02576
-5.01956
-5.00867
-4.99225
-4.59821
-4.60235
-4.60865
-4.61576
-4.62307
-4.63065
-4.63862
-4.64708
-4.65615
-4.66589
-4.67637
-4.6876
-4.69956
-4.71218
-4.72535
-4.73893
-4.75273
-4.76661
-4.78041
-4.79405
-4.80751
-4.8208
-4.83398
-4.84713
-4.86026
-4.87339
-4.88647
-4.89944
-4.91223
-4.92476
-4.93693
-4.94858
-4.95953
-4.96956
-4.97842
-4.9859
-4.99176
-4.99576
-4.99759
-4.9969
-4.99325
-4.98614
-4.97503
-4.95936
-4.93844
-4.64703
-4.65088
-4.6567
-4.66323
-4.66994
-4.67686
-4.68412
-4.6918
-4.69999
-4.70876
-4.71817
-4.72824
-4.73896
-4.75028
-4.76211
-4.77433
-4.78679
-4.79933
-4.81182
-4.82414
-4.83624
-4.84808
-4.85969
-4.8711
-4.88232
-4.89335
-4.90417
-4.91473
-4.92498
-4.93484
-4.94421
-4.95294
-4.96084
-4.96769
-4.97325
-4.9773
-4.9796
-4.97993
-4.97799
-4.97346
-4.96596
-4.95503
-4.94021
-4.92104
-4.89704
-4.69614
-4.69971
-4.70505
-4.71103
-4.71714
-4.72342
-4.72998
-4.73689
-4.74422
-4.75205
-4.76042
-4.76936
-4.77886
-4.78889
-4.79939
-4.81025
-4.82135
-4.83255
-4.84371
-4.85472
-4.8655
-4.87597
-4.88613
-4.89595
-4.90543
-4.91456
-4.92332
-4.93169
-4.9396
-4.94701
-4.95381
-4.95988
-4.96502
-4.96904
-4.9717
-4.97279
-4.97208
-4.96934
-4.96432
-4.95672
-4.94621
-4.93241
-4.91492
-4.89337
-4.86742
-4.74557
-4.74889
-4.75378
-4.75922
-4.76475
-4.77041
-4.77629
-4.78246
-4.78897
-4.79589
-4.80325
-4.81109
-4.81941
-4.82819
-4.83738
-4.84689
-4.85663
-4.86648
-4.87632
-4.88602
-4.8955
-4.90466
-4.91345
-4.92182
-4.92975
-4.93719
-4.94412
-4.95052
-4.95635
-4.96156
-4.96606
-4.96974
-4.97243
-4.97395
-4.9741
-4.97266
-4.96944
-4.9642
-4.95672
-4.94675
-4.934
-4.91815
-4.89888
-4.87589
-4.84889
-4.79539
-4.79848
-4.80294
-4.80787
-4.81285
-4.81792
-4.82315
-4.82861
-4.83433
-4.84037
-4.84678
-4.85358
-4.86077
-4.86834
-4.87626
-4.88445
-4.89285
-4.90136
-4.90987
-4.91827
-4.92646
-4.93435
-4.94186
-4.9489
-4.95542
-4.96137
-4.9667
-4.97138
-4.97539
-4.97868
-4.98118
-4.98278
-4.98335
-4.98271
-4.9807
-4.97713
-4.97183
-4.9646
-4.95522
-4.94349
-4.92915
-4.91196
-4.89164
-4.86797
-4.84063
-4.84565
-4.84852
-4.8526
-4.85705
-4.86151
-4.86602
-4.87064
-4.87541
-4.88038
-4.88561
-4.89111
-4.89692
-4.90304
-4.90946
-4.91616
-4.92309
-4.93019
-4.93738
-4.94457
-4.95168
-4.9586
-4.96525
-4.97153
-4.97734
-4.98259
-4.98721
-4.99115
-4.99437
-4.99682
-4.99848
-4.99928
-4.99914
-4.99791
-4.99548
-4.99167
-4.98635
-4.97935
-4.97054
-4.95972
-4.94672
-4.93134
-4.91336
-4.89258
-4.86878
-4.84171
-4.8964
-4.89908
-4.9028
-4.90681
-4.91079
-4.91477
-4.9188
-4.92293
-4.92721
-4.93165
-4.93631
-4.94119
-4.94631
-4.95166
-4.95721
-4.96294
-4.96879
-4.9747
-4.98062
-4.98645
-4.99213
-4.99756
-5.00265
-5.00729
-5.01139
-5.01484
-5.01757
-5.01952
-5.02067
-5.02096
-5.02036
-5.01879
-5.01613
-5.01225
-5.00703
-5.00032
-4.99201
-4.98198
-4.9701
-4.95622
-4.94019
-4.92184
-4.90099
-4.87749
-4.85114
-4.9477
-4.95021
-4.95359
-4.9572
-4.96073
-4.96421
-4.9677
-4.97124
-4.97485
-4.97857
-4.98243
-4.98645
-4.99064
-4.99499
-4.99948
-5.00408
-5.00876
-5.01347
-5.01815
-5.02276
-5.02722
-5.03146
-5.0354
-5.03893
-5.04194
-5.04433
-5.046
-5.04689
-5.04693
-5.0461
-5.04436
-5.04165
-5.03787
-5.0329
-5.02662
-5.01891
-5.00966
-4.99878
-4.98617
-4.97175
-4.95539
-4.93696
-4.91635
-4.89342
-4.86807
-4.99958
-5.00193
-5.00502
-5.00825
-5.01136
-5.01439
-5.01737
-5.02035
-5.02334
-5.02639
-5.02951
-5.03274
-5.03606
-5.03949
-5.043
-5.04657
-5.05017
-5.05375
-5.05728
-5.06072
-5.06402
-5.06712
-5.06994
-5.07241
-5.07441
-5.07583
-5.07656
-5.07652
-5.07564
-5.07389
-5.07123
-5.06761
-5.06297
-5.0572
-5.05018
-5.04181
-5.03199
-5.02062
-5.00764
-4.99298
-4.97657
-4.95833
-4.93816
-4.91599
-4.89176
-5.05208
-5.05429
-5.0571
-5.05999
-5.06273
-5.06533
-5.06785
-5.0703
-5.07272
-5.07514
-5.07758
-5.08006
-5.0826
-5.08518
-5.0878
-5.09044
-5.09305
-5.09562
-5.0981
-5.10045
-5.10266
-5.10467
-5.10644
-5.10789
-5.10893
-5.10945
-5.10934
-5.10851
-5.10687
-5.10436
-5.10097
-5.09664
-5.09134
-5.08498
-5.07747
-5.06872
-5.05861
-5.04707
-5.03403
-5.01945
-5.00327
-4.98544
-4.96591
-4.94464
-4.92161
-5.10524
-5.10731
-5.10987
-5.11246
-5.11484
-5.11706
-5.11914
-5.12111
-5.12299
-5.12483
-5.12663
-5.12844
-5.13025
-5.13207
-5.13389
-5.13569
-5.13743
-5.13909
-5.14062
-5.14201
-5.14323
-5.14424
-5.14502
-5.14552
-5.14565
-5.14534
-5.14447
-5.14294
-5.14066
-5.13756
-5.1336
-5.12874
-5.12295
-5.11618
-5.10836
-5.0994
-5.08923
-5.07775
-5.06491
-5.05065
-5.03495
-5.01776
-4.99905
-4.97883
-4.95709
-5.15908
-5.16103
-5.16336
-5.16566
-5.16774
-5.1696
-5.17128
-5.17279
-5.17418
-5.17547
-5.17669
-5.17786
-5.17902
-5.18015
-5.18125
-5.1823
-5.18328
-5.18414
-5.18485
-5.1854
-5.18574
-5.18587
-5.18576
-5.18539
-5.18469
-5.18361
-5.18204
-5.1799
-5.17709
-5.17353
-5.16916
-5.16393
-5.15782
-5.15079
-5.1428
-5.13379
-5.1237
-5.11244
-5.09997
-5.08623
-5.07119
-5.05483
-5.03711
-5.01807
-4.99776
-5.21363
-5.21547
-5.21758
-5.21963
-5.22142
-5.22296
-5.22426
-5.22536
-5.22628
-5.22706
-5.22774
-5.22834
-5.22889
-5.22939
-5.22985
-5.23025
-5.23055
-5.23073
-5.23075
-5.23058
-5.23019
-5.22957
-5.22869
-5.22755
-5.22611
-5.22433
-5.22214
-5.21946
-5.2162
-5.21228
-5.20763
-5.20218
-5.19592
-5.1888
-5.18079
-5.17187
-5.16198
-5.15107
-5.13909
-5.126
-5.11176
-5.09636
-5.07977
-5.06204
-5.04326
-5.26889
-5.27063
-5.27255
-5.27438
-5.27591
-5.27715
-5.27811
-5.27881
-5.2793
-5.27961
-5.27978
-5.27986
-5.27985
-5.27979
-5.27968
-5.27949
-5.27922
-5.27882
-5.27826
-5.2775
-5.27652
-5.27528
-5.27379
-5.27201
-5.26995
-5.26757
-5.26483
-5.26168
-5.25804
-5.25384
-5.249
-5.24346
-5.23718
-5.23012
-5.22225
-5.21356
-5.204
-5.19355
-5.18217
-5.16983
-5.1565
-5.14215
-5.12679
-5.11045
-5.09326
-5.32485
-5.32653
-5.3283
-5.32993
-5.33124
-5.3322
-5.33282
-5.33316
-5.33324
-5.33311
-5.33282
-5.33241
-5.33191
-5.33134
-5.33072
-5.33002
-5.32925
-5.32836
-5.32732
-5.32609
-5.32464
-5.32293
-5.32096
-5.3187
-5.31616
-5.3133
-5.31012
-5.30658
-5.30262
-5.2982
-5.29325
-5.2877
-5.28151
-5.27463
-5.26704
-5.2587
-5.24961
-5.23974
-5.22906
-5.21755
-5.2052
-5.19199
-5.17791
-5.16303
-5.14744
-5.38163
-5.38321
-5.38484
-5.38633
-5.38742
-5.38811
-5.38841
-5.38839
-5.38808
-5.38754
-5.38683
-5.38599
-5.38505
-5.38404
-5.38296
-5.38182
-5.38061
-5.37931
-5.37787
-5.37627
-5.37446
-5.37241
-5.3701
-5.36751
-5.36463
-5.36144
-5.35795
-5.35412
-5.34994
-5.34537
-5.34036
-5.33486
-5.32882
-5.3222
-5.31497
-5.3071
-5.29857
-5.28937
-5.27948
-5.26889
-5.25759
-5.24557
-5.23283
-5.21942
-5.20544
-5.43924
-5.44067
-5.44218
-5.44357
-5.44448
-5.4449
-5.44488
-5.44449
-5.44382
-5.44291
-5.44182
-5.4406
-5.43927
-5.43787
-5.43641
-5.43489
-5.43332
-5.43166
-5.42989
-5.42799
-5.42591
-5.42362
-5.42109
-5.4183
-5.41522
-5.41185
-5.40818
-5.40421
-5.39991
-5.39528
-5.39028
-5.38488
-5.37904
-5.37273
-5.36591
-5.35856
-5.35067
-5.34221
-5.33318
-5.32357
-5.31336
-5.30257
-5.29118
-5.27925
-5.26687
-5.49696
-5.49876
-5.5003
-5.5017
-5.50246
-5.50259
-5.50223
-5.50149
-5.50046
-5.49921
-5.49779
-5.49624
-5.4946
-5.49288
-5.4911
-5.48927
-5.48738
-5.48543
-5.48339
-5.48125
-5.47897
-5.47651
-5.47385
-5.47095
-5.46779
-5.46436
-5.46065
-5.45665
-5.45236
-5.44777
-5.44287
-5.43764
-5.43205
-5.42609
-5.41972
-5.41294
-5.40572
-5.39804
-5.38991
-5.3813
-5.37222
-5.36267
-5.35264
-5.34216
-5.33134
-5.55399
-5.55775
-5.55957
-5.56096
-5.56145
-5.56119
-5.56043
-5.55932
-5.55795
-5.5564
-5.55471
-5.5529
-5.55101
-5.54904
-5.54701
-5.54493
-5.5428
-5.54061
-5.53836
-5.53602
-5.53358
-5.531
-5.52826
-5.52533
-5.52217
-5.51878
-5.51513
-5.51122
-5.50705
-5.50261
-5.4979
-5.49292
-5.48765
-5.48209
-5.47622
-5.47003
-5.46351
-5.45664
-5.44942
-5.44185
-5.43391
-5.42559
-5.41689
-5.40783
-5.39848
-5.61251
-5.61878
-5.62046
-5.62146
-5.62142
-5.62061
-5.61936
-5.61787
-5.6162
-5.61441
-5.6125
-5.61051
-5.60843
-5.60628
-5.60407
-5.60181
-5.5995
-5.59714
-5.59472
-5.59224
-5.58968
-5.58701
-5.58422
-5.58129
-5.57817
-5.57486
-5.57134
-5.5676
-5.56363
-5.55944
-5.55502
-5.55038
-5.54551
-5.54042
-5.5351
-5.52956
-5.52377
-5.51775
-5.51148
-5.50496
-5.49816
-5.49108
-5.48368
-5.47597
-5.46798
-5.6751
-5.68504
-5.68449
-5.6837
-5.68266
-5.68121
-5.6795
-5.67767
-5.67576
-5.67378
-5.67173
-5.6696
-5.6674
-5.66513
-5.66281
-5.66042
-5.65798
-5.6555
-5.65296
-5.65036
-5.6477
-5.64497
-5.64214
-5.6392
-5.63613
-5.63291
-5.62953
-5.62598
-5.62226
-5.61835
-5.61428
-5.61004
-5.60563
-5.60108
-5.59637
-5.59153
-5.58654
-5.5814
-5.57612
-5.57068
-5.56507
-5.55924
-5.55317
-5.54677
-5.53995
-5.72399
-5.76819
-5.7597
-5.75062
-5.74644
-5.74395
-5.74171
-5.73953
-5.73739
-5.73526
-5.7331
-5.73088
-5.72861
-5.72628
-5.72389
-5.72144
-5.71893
-5.71637
-5.71375
-5.71108
-5.70835
-5.70555
-5.70269
-5.69975
-5.69671
-5.69357
-5.69032
-5.68696
-5.68349
-5.67989
-5.6762
-5.6724
-5.66851
-5.66455
-5.66051
-5.65642
-5.65228
-5.64809
-5.64385
-5.63956
-5.63519
-5.6307
-5.62597
-5.62077
-5.61457
-5.71585
-5.88084
-5.84373
-5.81581
-5.80598
-5.80128
-5.79784
-5.795
-5.7925
-5.79016
-5.78788
-5.78561
-5.78331
-5.78097
-5.77858
-5.77613
-5.77362
-5.77106
-5.76844
-5.76577
-5.76304
-5.76025
-5.75742
-5.75453
-5.7516
-5.74862
-5.74559
-5.74251
-5.73941
-5.73627
-5.73311
-5.72995
-5.72678
-5.72363
-5.72051
-5.71742
-5.71438
-5.71138
-5.70842
-5.70546
-5.70245
-5.69926
-5.69567
-5.69123
-5.68484
)
;

boundaryField
{
    leftWall
    {
        type            calculated;
        value           nonuniform List<scalar> 
42
(
-3.62734
-3.68772
-3.74591
-3.80229
-3.85707
-3.91049
-3.96274
-4.01399
-4.06438
-4.11407
-4.16318
-4.21187
-4.26026
-4.30847
-4.3566
-4.40473
-4.45291
-4.50119
-4.54961
-4.59821
-4.64703
-4.69614
-4.74557
-4.79539
-4.84565
-4.8964
-4.9477
-4.99958
-5.05208
-5.10524
-5.15908
-5.21363
-5.26889
-5.32485
-5.38163
-5.43924
-5.49696
-5.55399
-5.61251
-5.6751
-5.72399
-5.71585
)
;
    }
    rightWall
    {
        type            calculated;
        value           nonuniform 0();
    }
    lowerWall
    {
        type            calculated;
        value           nonuniform 0();
    }
    atmosphere
    {
        type            calculated;
        value           nonuniform List<scalar> 
45
(
-5.76725
-5.84078
-5.83374
-5.82833
-5.82436
-5.82112
-5.81833
-5.81582
-5.81348
-5.81122
-5.809
-5.80677
-5.80452
-5.80223
-5.79989
-5.79749
-5.79504
-5.79252
-5.78995
-5.78732
-5.78465
-5.78192
-5.77916
-5.77636
-5.77354
-5.7707
-5.76785
-5.76501
-5.76218
-5.75937
-5.75661
-5.75389
-5.75123
-5.74865
-5.74616
-5.74377
-5.74151
-5.73938
-5.73739
-5.73558
-5.73395
-5.73252
-5.73132
-5.73037
-5.72969
)
;
    }
    defaultFaces
    {
        type            empty;
    }
    procBoundary2to0
    {
        type            processor;
        value           nonuniform List<scalar> 
46
(
-4.02144
-4.06358
-4.107
-4.15272
-4.20147
-4.25351
-4.30873
-4.36666
-4.42667
-4.48825
-4.55127
-4.61616
-4.68386
-4.75545
-4.83189
-4.91377
-5.00145
-5.09554
-5.19729
-5.30865
-5.43187
-5.56855
-5.71886
-5.88087
-6.05021
-3.5649
-3.56948
-3.57372
-3.58022
-3.58901
-3.60038
-3.61461
-3.63189
-3.65237
-3.67614
-3.7032
-3.73342
-3.76655
-3.80218
-3.83982
-3.87889
-3.91887
-3.95931
-3.99991
-4.04038
-4.04038
)
;
    }
    procBoundary2to3
    {
        type            processor;
        value           nonuniform List<scalar> 
43
(
-6.32241
-6.41574
-6.49397
-6.54954
-6.5784
-6.57761
-6.54386
-6.48008
-6.38914
-6.27244
-6.13274
-5.97657
-5.81282
-5.65073
-5.49774
-5.35858
-5.23573
-5.13023
-5.04176
-4.96917
-4.91139
-4.86749
-4.83649
-4.81734
-4.80917
-4.81102
-4.82173
-4.84013
-4.86532
-4.89668
-4.93377
-4.97616
-5.02346
-5.07527
-5.13123
-5.19096
-5.2541
-5.32024
-5.38893
-5.45978
-5.53262
-5.60638
-5.67398
)
;
    }
}


// ************************************************************************* //
