/*--------------------------------*- C++ -*----------------------------------*\
| =========                 |                                                 |
| \\      /  F ield         | OpenFOAM: The Open Source CFD Toolbox           |
|  \\    /   O peration     | Version:  5.0                                   |
|   \\  /    A nd           | Web:      www.OpenFOAM.org                      |
|    \\/     M anipulation  |                                                 |
\*---------------------------------------------------------------------------*/
FoamFile
{
    version     2.0;
    format      ascii;
    class       volScalarField;
    location    "0.35";
    object      p_rgh;
}
// * * * * * * * * * * * * * * * * * * * * * * * * * * * * * * * * * * * * * //

dimensions      [1 -1 -2 0 0 0 0];

internalField   nonuniform List<scalar> 
1915
(
-1.73646
-1.77728
-1.81952
-1.86422
-1.91202
-1.96313
-2.01742
-2.07441
-2.13353
-2.19435
-2.25685
-2.32152
-2.38928
-2.46118
-2.5381
-2.62062
-2.70922
-2.8047
-2.90857
-3.02305
-3.15051
-3.29271
-3.44991
-3.62026
-3.79901
-1.21773
-1.2222
-1.22742
-1.23476
-1.24423
-1.2561
-1.27062
-1.28802
-1.30846
-1.33204
-1.35876
-1.38849
-1.42099
-1.45586
-1.4926
-1.53066
-1.56952
-1.60872
-1.64797
-1.68713
-1.72638
-1.76631
-1.8079
-1.85196
-1.89894
-1.94903
-2.00208
-2.05773
-2.11557
-2.17537
-2.23725
-2.30172
-2.36959
-2.44174
-2.51892
-2.60176
-2.69094
-2.78756
-2.89333
-3.01054
-3.1416
-3.28838
-3.4515
-3.62934
-3.81699
-1.21218
-1.21652
-1.22279
-1.23101
-1.24116
-1.25351
-1.26832
-1.28581
-1.30616
-1.32946
-1.35571
-1.38478
-1.41641
-1.45024
-1.48577
-1.52252
-1.55998
-1.59778
-1.63567
-1.67365
-1.71201
-1.75139
-1.79254
-1.83602
-1.88222
-1.93122
-1.98292
-2.03705
-2.09344
-2.15205
-2.21316
-2.27728
-2.34508
-2.41724
-2.49441
-2.57726
-2.66666
-2.76394
-2.87098
-2.99003
-3.12346
-3.2733
-3.44058
-3.62421
-3.81951
-1.20383
-1.20852
-1.21564
-1.22467
-1.23544
-1.2482
-1.26324
-1.28078
-1.30098
-1.32393
-1.34963
-1.37793
-1.40859
-1.44124
-1.47545
-1.51075
-1.54673
-1.58308
-1.61965
-1.65654
-1.69411
-1.7329
-1.77347
-1.81629
-1.8616
-1.90946
-1.95977
-2.01239
-2.06729
-2.12462
-2.18477
-2.24823
-2.31556
-2.38731
-2.46405
-2.54648
-2.63564
-2.73297
-2.84033
-2.95994
-3.09414
-3.24511
-3.41426
-3.60109
-3.80151
-1.19304
-1.19817
-1.20604
-1.21576
-1.22705
-1.24015
-1.25534
-1.27284
-1.29282
-1.31536
-1.34044
-1.36794
-1.39759
-1.42907
-1.46195
-1.49583
-1.53035
-1.56528
-1.60057
-1.63637
-1.67305
-1.71107
-1.7509
-1.79288
-1.8372
-1.88384
-1.93272
-1.9838
-2.03718
-2.09313
-2.15209
-2.21453
-2.28092
-2.35173
-2.42748
-2.50892
-2.59716
-2.69362
-2.80012
-2.91876
-3.05189
-3.20184
-3.37026
-3.55714
-3.75919
-1.18004
-1.1856
-1.19411
-1.20441
-1.21611
-1.22944
-1.24469
-1.26207
-1.28176
-1.30383
-1.32826
-1.35492
-1.38357
-1.41388
-1.44548
-1.47799
-1.51111
-1.54466
-1.57867
-1.61333
-1.64899
-1.68609
-1.725
-1.76601
-1.80919
-1.85451
-1.90191
-1.9514
-2.00316
-2.05757
-2.11506
-2.17611
-2.24108
-2.31038
-2.38452
-2.46428
-2.55075
-2.64531
-2.74961
-2.86561
-2.99563
-3.14207
-3.30679
-3.49028
-3.69038
-1.16505
-1.17096
-1.18
-1.19077
-1.20277
-1.21623
-1.23144
-1.24863
-1.26796
-1.2895
-1.31324
-1.33905
-1.3667
-1.39587
-1.42621
-1.45739
-1.48915
-1.52136
-1.55408
-1.58754
-1.62208
-1.65811
-1.69596
-1.73583
-1.77774
-1.82164
-1.86745
-1.91524
-1.96526
-2.01792
-2.07367
-2.13293
-2.19601
-2.26323
-2.3351
-2.41241
-2.4962
-2.58774
-2.68848
-2.80018
-2.92504
-3.06544
-3.22334
-3.39967
-3.59312
-1.14824
-1.15443
-1.16388
-1.175
-1.18718
-1.20066
-1.21575
-1.23267
-1.25157
-1.27254
-1.29556
-1.32049
-1.34713
-1.37518
-1.4043
-1.43419
-1.46463
-1.49551
-1.52693
-1.55913
-1.59246
-1.6273
-1.66393
-1.70251
-1.74302
-1.78536
-1.82947
-1.87543
-1.92354
-1.97423
-2.02794
-2.08502
-2.14573
-2.21032
-2.27927
-2.35334
-2.43353
-2.52093
-2.61679
-2.72262
-2.84043
-2.97246
-3.12071
-3.28646
-3.46933
-1.1298
-1.13617
-1.14591
-1.15724
-1.16949
-1.18291
-1.19778
-1.21435
-1.23277
-1.25311
-1.27536
-1.29941
-1.32504
-1.35198
-1.37991
-1.40854
-1.43768
-1.46725
-1.49735
-1.52823
-1.56026
-1.59378
-1.62906
-1.6662
-1.70516
-1.74582
-1.78809
-1.83208
-1.8781
-1.92657
-1.97793
-2.03247
-2.09036
-2.1518
-2.21721
-2.28732
-2.36301
-2.44525
-2.53502
-2.6336
-2.74272
-2.86436
-3.00049
-3.15269
-3.32151
-1.10986
-1.11633
-1.12623
-1.13765
-1.14987
-1.16312
-1.1777
-1.19384
-1.21171
-1.23137
-1.25283
-1.27596
-1.30058
-1.32642
-1.35317
-1.38057
-1.40842
-1.43668
-1.46544
-1.49496
-1.52559
-1.55768
-1.59147
-1.62704
-1.66431
-1.70315
-1.74346
-1.78533
-1.82906
-1.87509
-1.9238
-1.97544
-2.03011
-2.08793
-2.14926
-2.21475
-2.28518
-2.36133
-2.44398
-2.53415
-2.63322
-2.74288
-2.86484
-3.00082
-3.15196
-1.08855
-1.09504
-1.10498
-1.11638
-1.12846
-1.14146
-1.15567
-1.17132
-1.18857
-1.20751
-1.22813
-1.25032
-1.27391
-1.29864
-1.32423
-1.35041
-1.37699
-1.40393
-1.43133
-1.45944
-1.4886
-1.51915
-1.55132
-1.58518
-1.62063
-1.65752
-1.69573
-1.73534
-1.77662
-1.81998
-1.86578
-1.9142
-1.96529
-2.01909
-2.07589
-2.13621
-2.20073
-2.27005
-2.34475
-2.42558
-2.51358
-2.61002
-2.71628
-2.83381
-2.96392
-1.06602
-1.07244
-1.08232
-1.09358
-1.10543
-1.1181
-1.13187
-1.14697
-1.16356
-1.18172
-1.20145
-1.22268
-1.24522
-1.26884
-1.29325
-1.31821
-1.34354
-1.36916
-1.39518
-1.42184
-1.44946
-1.47837
-1.5088
-1.54082
-1.57432
-1.60913
-1.64513
-1.68234
-1.72102
-1.76152
-1.80417
-1.8491
-1.89631
-1.94578
-1.99768
-2.05245
-2.11059
-2.17255
-2.23871
-2.30957
-2.38582
-2.46829
-2.55789
-2.65563
-2.76253
-1.04239
-1.04869
-1.05839
-1.06942
-1.08096
-1.09323
-1.1065
-1.12099
-1.13686
-1.1542
-1.17301
-1.19323
-1.2147
-1.23719
-1.26043
-1.28418
-1.30824
-1.33255
-1.35718
-1.38235
-1.40838
-1.43557
-1.46415
-1.4942
-1.52562
-1.55824
-1.5919
-1.62661
-1.66255
-1.70004
-1.73934
-1.78056
-1.82366
-1.86856
-1.91534
-1.9643
-2.0158
-2.07013
-2.12749
-2.18813
-2.25239
-2.32067
-2.39344
-2.47115
-2.55432
-1.01779
-1.02391
-1.03335
-1.04406
-1.05522
-1.06702
-1.07974
-1.09357
-1.10868
-1.12516
-1.14302
-1.1622
-1.18257
-1.2039
-1.22596
-1.24848
-1.27129
-1.29429
-1.31753
-1.34119
-1.36558
-1.39098
-1.41762
-1.4456
-1.47482
-1.50513
-1.53634
-1.56844
-1.60155
-1.63591
-1.67174
-1.70911
-1.74794
-1.78811
-1.82963
-1.87266
-1.91742
-1.96407
-2.01266
-2.0632
-2.11573
-2.17026
-2.22681
-2.28539
-2.34595
-0.992337
-0.998227
-1.00733
-1.01765
-1.02836
-1.03965
-1.05177
-1.06491
-1.07922
-1.09479
-1.11166
-1.12978
-1.14901
-1.16917
-1.19003
-1.21133
-1.23287
-1.25456
-1.27641
-1.29857
-1.3213
-1.34487
-1.36951
-1.39532
-1.42225
-1.45014
-1.47882
-1.50822
-1.53842
-1.56957
-1.60185
-1.63529
-1.66978
-1.70517
-1.74139
-1.77848
-1.81657
-1.85566
-1.89571
-1.93656
-1.978
-2.01972
-2.06138
-2.10261
-2.14293
-0.966117
-0.971748
-0.98046
-0.990323
-1.00055
-1.01128
-1.02275
-1.03516
-1.04864
-1.06328
-1.07913
-1.09614
-1.11422
-1.13318
-1.15282
-1.17288
-1.19316
-1.21355
-1.23402
-1.25468
-1.27575
-1.29748
-1.32009
-1.34369
-1.36825
-1.39364
-1.4197
-1.44634
-1.47357
-1.50149
-1.53021
-1.55971
-1.58987
-1.62052
-1.65151
-1.68281
-1.71442
-1.74626
-1.7782
-1.80997
-1.84118
-1.87134
-1.89985
-1.92605
-1.94916
-0.939203
-0.944551
-0.952825
-0.962188
-0.971875
-0.982015
-0.992822
-1.00447
-1.01709
-1.03077
-1.04557
-1.06146
-1.07835
-1.09609
-1.11448
-1.13328
-1.1523
-1.17139
-1.19049
-1.20969
-1.22913
-1.24904
-1.26962
-1.29099
-1.31315
-1.336
-1.35939
-1.38322
-1.40747
-1.43216
-1.45733
-1.48295
-1.50888
-1.53491
-1.56087
-1.58664
-1.61212
-1.63717
-1.66159
-1.68504
-1.70707
-1.72706
-1.74429
-1.75795
-1.76703
-0.911647
-0.916697
-0.9245
-0.933328
-0.942448
-0.951967
-0.962081
-0.972945
-0.984685
-0.997395
-1.01112
-1.02586
-1.04154
-1.05803
-1.07515
-1.09268
-1.11042
-1.12822
-1.14598
-1.16373
-1.18159
-1.19972
-1.21832
-1.23749
-1.25726
-1.27756
-1.29828
-1.3193
-1.34057
-1.36207
-1.38378
-1.40563
-1.42746
-1.44906
-1.47024
-1.49082
-1.51063
-1.52947
-1.54708
-1.56311
-1.57706
-1.58831
-1.5961
-1.59959
-1.59768
-0.883489
-0.888233
-0.895543
-0.903811
-0.912339
-0.921219
-0.930623
-0.940692
-0.951542
-0.963264
-0.975909
-0.989483
-1.00393
-1.01915
-1.03497
-1.05121
-1.06766
-1.08415
-1.10059
-1.11694
-1.13327
-1.1497
-1.16639
-1.18343
-1.20087
-1.21868
-1.23675
-1.255
-1.27333
-1.29171
-1.31008
-1.32831
-1.34626
-1.36369
-1.38039
-1.39616
-1.41079
-1.42404
-1.43562
-1.44516
-1.45216
-1.45603
-1.45608
-1.45149
-1.44125
-0.85476
-0.859199
-0.866006
-0.873698
-0.881621
-0.88985
-0.898536
-0.907804
-0.91776
-0.92849
-0.940048
-0.952448
-0.965654
-0.979578
-0.994083
-1.009
-1.02414
-1.03933
-1.05445
-1.06943
-1.08429
-1.09911
-1.11399
-1.12901
-1.14423
-1.15963
-1.17514
-1.19069
-1.20619
-1.22157
-1.23674
-1.25157
-1.26587
-1.27943
-1.29201
-1.3034
-1.31338
-1.32168
-1.32801
-1.33198
-1.33313
-1.33091
-1.32471
-1.31383
-1.2974
-0.825497
-0.829635
-0.83594
-0.843051
-0.850364
-0.857938
-0.865905
-0.874374
-0.88344
-0.893184
-0.90366
-0.914888
-0.926847
-0.939468
-0.952641
-0.966215
-0.980023
-0.993898
-1.0077
-1.02134
-1.0348
-1.04809
-1.06127
-1.07441
-1.08755
-1.10068
-1.11376
-1.12673
-1.13952
-1.15205
-1.16421
-1.17587
-1.18682
-1.19685
-1.20571
-1.21319
-1.21905
-1.22305
-1.22488
-1.22419
-1.22054
-1.21343
-1.20232
-1.18665
-1.16573
-0.795736
-0.799585
-0.805397
-0.811933
-0.818639
-0.825562
-0.832817
-0.840497
-0.848688
-0.857461
-0.86687
-0.87694
-0.887659
-0.898979
-0.910811
-0.92303
-0.935489
-0.948032
-0.960519
-0.972842
-0.984937
-0.996784
-1.0084
-1.0198
-1.03102
-1.04205
-1.05287
-1.06343
-1.07368
-1.08354
-1.09291
-1.10164
-1.10954
-1.11639
-1.12195
-1.126
-1.12831
-1.12863
-1.12669
-1.12217
-1.11466
-1.10373
-1.08891
-1.06974
-1.04574
-0.765521
-0.769097
-0.774434
-0.78041
-0.78652
-0.792804
-0.799361
-0.806271
-0.813607
-0.821435
-0.829804
-0.83874
-0.848242
-0.858276
-0.868774
-0.879634
-0.890733
-0.901931
-0.913095
-0.924108
-0.93488
-0.945356
-0.95551
-0.96533
-0.974812
-0.983945
-0.992708
-1.00107
-1.00899
-1.01639
-1.0232
-1.02926
-1.0344
-1.03842
-1.04109
-1.04218
-1.04147
-1.03873
-1.0337
-1.0261
-1.0156
-1.00179
-0.984302
-0.962751
-0.936807
-0.7349
-0.738221
-0.743108
-0.748546
-0.754079
-0.759744
-0.765624
-0.771789
-0.778301
-0.785217
-0.792582
-0.800423
-0.808745
-0.817524
-0.82671
-0.836224
-0.845964
-0.855812
-0.865647
-0.875353
-0.884827
-0.89399
-0.902781
-0.911154
-0.919075
-0.926516
-0.933451
-0.93985
-0.94568
-0.950888
-0.955391
-0.959069
-0.961762
-0.963282
-0.963429
-0.961994
-0.958768
-0.953532
-0.946054
-0.936081
-0.923328
-0.907478
-0.888208
-0.86522
-0.838224
-0.703921
-0.707009
-0.711474
-0.716402
-0.721385
-0.726456
-0.731687
-0.737138
-0.742861
-0.748907
-0.755315
-0.762111
-0.769302
-0.776873
-0.784788
-0.792986
-0.801385
-0.809891
-0.818398
-0.8268
-0.834993
-0.842885
-0.850388
-0.857432
-0.863952
-0.869898
-0.87523
-0.879917
-0.883927
-0.887216
-0.889715
-0.891316
-0.89188
-0.891244
-0.889233
-0.885667
-0.880364
-0.873129
-0.863755
-0.852021
-0.837686
-0.82049
-0.800177
-0.776503
-0.749167
-0.672633
-0.675508
-0.679583
-0.684034
-0.688498
-0.693005
-0.69762
-0.702393
-0.707369
-0.712591
-0.718094
-0.723902
-0.730023
-0.736448
-0.743148
-0.750077
-0.757174
-0.764362
-0.771555
-0.778663
-0.78559
-0.792239
-0.798514
-0.804321
-0.809574
-0.814199
-0.81814
-0.821354
-0.823809
-0.825467
-0.826269
-0.826121
-0.8249
-0.822461
-0.818655
-0.81333
-0.806338
-0.79752
-0.786706
-0.773708
-0.758325
-0.740344
-0.71956
-0.695768
-0.668692
-0.641082
-0.643764
-0.64748
-0.65149
-0.655468
-0.659447
-0.663482
-0.667615
-0.671887
-0.676335
-0.680989
-0.685871
-0.690989
-0.696337
-0.701892
-0.707619
-0.713469
-0.719384
-0.725296
-0.731133
-0.736811
-0.742244
-0.747332
-0.751973
-0.756066
-0.759516
-0.762247
-0.764203
-0.765347
-0.765644
-0.765044
-0.763469
-0.760809
-0.756933
-0.751706
-0.744998
-0.736688
-0.726657
-0.714776
-0.7009
-0.684871
-0.666517
-0.645673
-0.622174
-0.595825
-0.609309
-0.611817
-0.615205
-0.618808
-0.622337
-0.625822
-0.629314
-0.632848
-0.63646
-0.640183
-0.644044
-0.648064
-0.65225
-0.656597
-0.661088
-0.665692
-0.67037
-0.675077
-0.679761
-0.684366
-0.688829
-0.693073
-0.697011
-0.700542
-0.703555
-0.705945
-0.707616
-0.708498
-0.708543
-0.707715
-0.705975
-0.703259
-0.699476
-0.694509
-0.688229
-0.680517
-0.671267
-0.660387
-0.647785
-0.633359
-0.616998
-0.598573
-0.577958
-0.555031
-0.529684
-0.577349
-0.5797
-0.582788
-0.586019
-0.589134
-0.592161
-0.595146
-0.59812
-0.601115
-0.604161
-0.607286
-0.610506
-0.613832
-0.617259
-0.620771
-0.624342
-0.627938
-0.631522
-0.635054
-0.638492
-0.641789
-0.644887
-0.647714
-0.65018
-0.652178
-0.653598
-0.654331
-0.654291
-0.653416
-0.651665
-0.649003
-0.645385
-0.640739
-0.634967
-0.627954
-0.619585
-0.609758
-0.598389
-0.58541
-0.570752
-0.554343
-0.536098
-0.51593
-0.493762
-0.469535
-0.545232
-0.54744
-0.550253
-0.553145
-0.55588
-0.558485
-0.561
-0.563453
-0.565872
-0.568289
-0.570729
-0.573212
-0.575749
-0.578335
-0.580958
-0.583592
-0.586207
-0.588771
-0.591248
-0.593606
-0.595812
-0.597826
-0.599593
-0.601043
-0.602082
-0.602603
-0.602496
-0.60166
-0.600018
-0.597517
-0.59412
-0.589794
-0.584489
-0.578131
-0.570627
-0.56187
-0.551763
-0.540224
-0.527186
-0.5126
-0.496419
-0.478592
-0.459064
-0.437798
-0.414763
-0.512986
-0.51506
-0.517621
-0.520204
-0.522593
-0.52481
-0.52689
-0.528858
-0.530743
-0.532574
-0.534381
-0.536185
-0.537998
-0.539822
-0.541642
-0.543439
-0.54518
-0.546835
-0.548371
-0.549758
-0.550974
-0.551989
-0.55277
-0.553265
-0.553402
-0.553088
-0.552219
-0.55069
-0.54841
-0.545312
-0.54135
-0.53649
-0.530699
-0.523926
-0.516105
-0.507151
-0.496975
-0.485499
-0.472656
-0.4584
-0.442694
-0.425505
-0.406802
-0.386577
-0.36484
-0.480633
-0.482584
-0.484911
-0.487212
-0.489287
-0.491148
-0.492826
-0.494344
-0.495731
-0.497018
-0.498238
-0.499415
-0.500568
-0.5017
-0.502801
-0.503854
-0.504827
-0.505689
-0.506406
-0.506948
-0.507294
-0.507424
-0.507316
-0.506938
-0.506242
-0.505156
-0.503593
-0.501454
-0.498644
-0.495081
-0.490707
-0.48548
-0.479369
-0.472342
-0.464353
-0.455344
-0.445248
-0.433994
-0.421522
-0.407783
-0.392744
-0.376378
-0.358665
-0.339624
-0.319312
-0.448188
-0.450024
-0.452135
-0.454183
-0.455973
-0.457509
-0.458815
-0.459913
-0.460835
-0.461616
-0.462291
-0.462892
-0.463441
-0.463946
-0.464404
-0.464799
-0.465104
-0.465284
-0.465305
-0.465133
-0.464745
-0.464122
-0.463248
-0.462106
-0.460668
-0.458886
-0.456696
-0.454015
-0.450757
-0.446835
-0.44218
-0.436738
-0.430471
-0.423351
-0.415347
-0.406423
-0.396532
-0.385622
-0.373643
-0.360552
-0.346316
-0.330911
-0.314323
-0.296589
-0.27781
-0.415637
-0.417379
-0.419301
-0.421127
-0.422663
-0.423899
-0.424857
-0.425562
-0.426049
-0.426359
-0.426532
-0.426604
-0.426603
-0.426542
-0.426426
-0.426242
-0.425966
-0.425567
-0.425007
-0.42425
-0.423265
-0.422032
-0.420534
-0.418761
-0.416697
-0.414317
-0.41158
-0.408426
-0.404786
-0.400583
-0.395744
-0.390208
-0.383927
-0.376868
-0.369003
-0.360308
-0.350752
-0.340303
-0.328923
-0.316579
-0.303244
-0.288899
-0.273535
-0.257197
-0.240006
-0.38298
-0.384656
-0.386423
-0.388062
-0.389368
-0.390324
-0.390952
-0.391284
-0.391363
-0.391236
-0.390947
-0.390537
-0.390039
-0.389473
-0.388846
-0.388153
-0.387376
-0.386485
-0.385444
-0.384215
-0.382764
-0.381062
-0.379089
-0.376832
-0.374283
-0.371429
-0.368247
-0.364705
-0.360752
-0.35633
-0.351376
-0.345828
-0.339636
-0.332758
-0.325164
-0.316831
-0.307739
-0.297864
-0.287185
-0.275678
-0.263325
-0.250114
-0.236041
-0.221153
-0.205569
-0.350317
-0.351897
-0.353527
-0.355011
-0.356107
-0.356793
-0.357098
-0.357069
-0.356761
-0.356226
-0.355516
-0.354674
-0.353734
-0.35272
-0.351645
-0.350508
-0.349298
-0.347991
-0.346554
-0.34495
-0.343142
-0.341097
-0.338788
-0.336196
-0.333312
-0.330127
-0.326631
-0.322807
-0.318628
-0.314056
-0.309045
-0.303543
-0.297504
-0.290885
-0.283653
-0.275784
-0.267258
-0.258058
-0.248169
-0.237578
-0.226275
-0.214253
-0.201513
-0.188102
-0.174126
-0.317647
-0.319081
-0.320588
-0.321976
-0.32289
-0.323307
-0.323288
-0.322906
-0.322228
-0.321318
-0.32023
-0.319006
-0.317682
-0.316283
-0.314822
-0.313305
-0.311726
-0.310067
-0.308302
-0.306399
-0.304322
-0.302034
-0.299505
-0.29671
-0.293633
-0.290262
-0.286592
-0.282616
-0.27832
-0.273687
-0.268687
-0.263286
-0.257448
-0.251136
-0.24432
-0.236975
-0.229081
-0.220625
-0.211593
-0.201979
-0.191774
-0.180977
-0.169592
-0.15766
-0.145278
-0.284261
-0.28606
-0.287599
-0.289001
-0.289756
-0.289887
-0.289525
-0.288786
-0.287757
-0.286507
-0.285088
-0.283541
-0.281897
-0.280177
-0.278398
-0.276565
-0.274677
-0.272726
-0.270691
-0.268547
-0.266264
-0.263807
-0.261144
-0.258246
-0.25509
-0.251661
-0.24795
-0.243951
-0.239661
-0.235071
-0.230169
-0.224936
-0.21935
-0.213387
-0.207023
-0.200238
-0.193015
-0.18534
-0.177205
-0.168601
-0.159523
-0.149967
-0.139934
-0.129462
-0.118635
-0.249326
-0.253091
-0.254907
-0.256302
-0.256794
-0.256535
-0.25577
-0.254658
-0.253295
-0.251745
-0.250051
-0.248245
-0.246349
-0.24438
-0.242351
-0.24027
-0.238138
-0.235951
-0.2337
-0.231364
-0.228922
-0.226346
-0.223604
-0.220667
-0.217512
-0.214116
-0.210468
-0.206559
-0.202387
-0.197948
-0.193242
-0.18826
-0.182994
-0.177432
-0.171562
-0.16537
-0.158847
-0.151981
-0.144765
-0.13719
-0.129247
-0.120929
-0.112228
-0.103167
-0.0938157
-0.215042
-0.221309
-0.222984
-0.223989
-0.223951
-0.223137
-0.221892
-0.220398
-0.218734
-0.216937
-0.215032
-0.213035
-0.210958
-0.208811
-0.206604
-0.204342
-0.202029
-0.199667
-0.197249
-0.194767
-0.192204
-0.189541
-0.186753
-0.183815
-0.180701
-0.177392
-0.173871
-0.170129
-0.166161
-0.161966
-0.157547
-0.152904
-0.148038
-0.142948
-0.137631
-0.132084
-0.126302
-0.120281
-0.114013
-0.107488
-0.100691
-0.093607
-0.0862126
-0.0785019
-0.0705066
-0.183955
-0.193892
-0.193349
-0.192556
-0.19152
-0.190068
-0.188357
-0.186526
-0.184618
-0.182637
-0.180581
-0.178452
-0.176254
-0.173989
-0.171661
-0.169277
-0.166839
-0.164351
-0.161811
-0.159215
-0.156556
-0.153821
-0.150994
-0.148055
-0.144986
-0.141768
-0.138389
-0.134838
-0.131111
-0.127208
-0.123133
-0.118892
-0.11449
-0.109934
-0.10523
-0.100382
-0.0953909
-0.0902576
-0.0849768
-0.0795375
-0.0739209
-0.0680975
-0.0620225
-0.0556234
-0.0488078
-0.138304
-0.182507
-0.174011
-0.164933
-0.160751
-0.158263
-0.156018
-0.15384
-0.151706
-0.149573
-0.147408
-0.145193
-0.142922
-0.140591
-0.1382
-0.135749
-0.133241
-0.130678
-0.12806
-0.125388
-0.122659
-0.119866
-0.117003
-0.114058
-0.111022
-0.107884
-0.104636
-0.101275
-0.0977972
-0.0942067
-0.0905089
-0.0867119
-0.0828253
-0.0788597
-0.0748258
-0.0707333
-0.0665904
-0.0624017
-0.0581667
-0.053876
-0.0495058
-0.0450104
-0.0402806
-0.0350823
-0.0288828
-0.034737
-0.199731
-0.162617
-0.134697
-0.124874
-0.120173
-0.116726
-0.113887
-0.11139
-0.109054
-0.106775
-0.1045
-0.1022
-0.0998592
-0.0974672
-0.0950196
-0.0925143
-0.0899514
-0.0873317
-0.0846564
-0.0819268
-0.0791445
-0.0763105
-0.0734254
-0.0704901
-0.0675062
-0.0644762
-0.0614042
-0.0582961
-0.0551591
-0.0520026
-0.0488368
-0.0456733
-0.0425239
-0.0394004
-0.036313
-0.0332689
-0.0302698
-0.0273067
-0.0243509
-0.0213405
-0.0181555
-0.0145641
-0.0101239
-0.00373027
)
;

boundaryField
{
    leftWall
    {
        type            fixedFluxPressure;
        gradient        uniform 0;
        value           nonuniform List<scalar> 
42
(
-1.21773
-1.21218
-1.20383
-1.19304
-1.18004
-1.16505
-1.14824
-1.1298
-1.10986
-1.08855
-1.06602
-1.04239
-1.01779
-0.992337
-0.966117
-0.939203
-0.911647
-0.883489
-0.85476
-0.825497
-0.795736
-0.765521
-0.7349
-0.703921
-0.672633
-0.641082
-0.609309
-0.577349
-0.545232
-0.512986
-0.480633
-0.448188
-0.415637
-0.38298
-0.350317
-0.317647
-0.284261
-0.249326
-0.215042
-0.183955
-0.138304
-0.034737
)
;
    }
    rightWall
    {
        type            fixedFluxPressure;
        gradient        nonuniform 0();
        value           nonuniform 0();
    }
    lowerWall
    {
        type            fixedFluxPressure;
        gradient        nonuniform 0();
        value           nonuniform 0();
    }
    atmosphere
    {
        type            totalPressure;
        rho             rho;
        psi             none;
        gamma           1;
        p0              uniform 0;
        value           nonuniform List<scalar> 
45
(
-0.0382069
-0.111742
-0.104699
-0.0992939
-0.095322
-0.0920812
-0.0892903
-0.0867819
-0.0844396
-0.0821833
-0.0799599
-0.0777341
-0.075483
-0.0731914
-0.07085
-0.068453
-0.0659978
-0.0634836
-0.0609117
-0.0582845
-0.0556062
-0.0528816
-0.0501169
-0.0473193
-0.0444965
-0.0416573
-0.0388112
-0.0359681
-0.0331386
-0.0303341
-0.0275664
-0.024848
-0.0221917
-0.0196113
-0.0171208
-0.0147345
-0.0124676
-0.0103352
-0.00835312
-0.00653785
-0.00490698
-0.0034803
-0.00228056
-0.00133174
-0.000648617
)
;
    }
    defaultFaces
    {
        type            empty;
    }
    procBoundary2to0
    {
        type            processor;
        value           nonuniform List<scalar> 
46
(
-1.74188
-1.78402
-1.82744
-1.87317
-1.92191
-1.97395
-2.02917
-2.0871
-2.14711
-2.20869
-2.27171
-2.3366
-2.4043
-2.47589
-2.55233
-2.63421
-2.72189
-2.81598
-2.91773
-3.0291
-3.15231
-3.28899
-3.4393
-3.60131
-3.77061
-1.22062
-1.2252
-1.22943
-1.23594
-1.24472
-1.2561
-1.27033
-1.28761
-1.30809
-1.33186
-1.35892
-1.38914
-1.42227
-1.4579
-1.49554
-1.53461
-1.57459
-1.61503
-1.65562
-1.69609
-1.69609
)
;
    }
    procBoundary2to3
    {
        type            processor;
        value           nonuniform List<scalar> 
43
(
-3.97808
-4.00609
-4.01827
-4.00718
-3.96886
-3.90042
-3.79834
-3.66554
-3.5049
-3.31787
-3.10719
-2.87938
-2.64333
-2.40826
-2.1816
-1.96809
-1.77021
-1.58898
-1.42406
-1.27433
-1.13868
-1.0162
-0.905869
-0.806675
-0.717707
-0.638005
-0.566408
-0.501745
-0.443094
-0.389837
-0.341517
-0.297715
-0.258017
-0.222023
-0.189355
-0.159645
-0.13251
-0.107535
-0.0842703
-0.0623111
-0.041478
-0.020689
0.00712991
)
;
    }
}


// ************************************************************************* //
