/*--------------------------------*- C++ -*----------------------------------*\
| =========                 |                                                 |
| \\      /  F ield         | OpenFOAM: The Open Source CFD Toolbox           |
|  \\    /   O peration     | Version:  5.0                                   |
|   \\  /    A nd           | Web:      www.OpenFOAM.org                      |
|    \\/     M anipulation  |                                                 |
\*---------------------------------------------------------------------------*/
FoamFile
{
    version     2.0;
    format      ascii;
    class       surfaceScalarField;
    location    "0.35";
    object      phi;
}
// * * * * * * * * * * * * * * * * * * * * * * * * * * * * * * * * * * * * * //

dimensions      [0 3 -1 0 0 0 0];

internalField   nonuniform List<scalar> 
3742
(
3.72257e-06
-6.44541e-05
3.5831e-06
-6.29261e-05
3.44453e-06
-6.13427e-05
3.32333e-06
-5.97271e-05
3.23817e-06
-5.81092e-05
3.20871e-06
-5.6524e-05
3.25553e-06
-5.50113e-05
3.39981e-06
-5.3615e-05
3.6632e-06
-5.23819e-05
4.06779e-06
-5.13615e-05
4.63636e-06
-5.06042e-05
5.39273e-06
-5.01612e-05
6.36263e-06
-5.00831e-05
7.57488e-06
-5.0418e-05
9.06293e-06
-5.12078e-05
1.08668e-05
-5.24809e-05
1.30351e-05
-5.42397e-05
1.56264e-05
-5.64413e-05
1.87095e-05
-5.89696e-05
2.23601e-05
-6.16001e-05
2.66529e-05
-6.39584e-05
3.16425e-05
-6.54763e-05
3.73294e-05
-6.53576e-05
4.36111e-05
-6.25885e-05
-5.60353e-05
-5.43515e-08
-8.11754e-05
-2.07965e-07
-8.32914e-05
-2.74085e-07
-8.27878e-05
-2.78434e-07
-8.19317e-05
-2.32352e-07
-8.10026e-05
-1.47162e-07
-8.0066e-05
-3.45234e-08
-7.91434e-05
9.38525e-08
-7.82407e-05
2.26486e-07
-7.73558e-05
3.52446e-07
-7.64819e-05
4.61687e-07
-7.56086e-05
5.45371e-07
-7.47233e-05
5.96191e-07
-7.3812e-05
6.08639e-07
-7.28605e-05
5.79241e-07
-7.1855e-05
5.06746e-07
-7.07835e-05
3.92247e-07
-6.96364e-05
2.39135e-07
-6.84074e-05
5.29936e-08
-6.70939e-05
-1.57314e-07
-6.56988e-05
-3.81687e-07
-6.42298e-05
-6.07306e-07
-6.27005e-05
-8.2013e-07
-6.11299e-05
-1.00406e-06
-5.95431e-05
-1.14247e-06
-5.79708e-05
-1.21787e-06
-5.64486e-05
-1.21239e-06
-5.50168e-05
-1.10814e-06
-5.37192e-05
-8.8734e-07
-5.26027e-05
-5.32499e-07
-5.17163e-05
-2.63467e-08
-5.11104e-05
6.48384e-07
-5.0836e-05
1.50954e-06
-5.09443e-05
2.57663e-06
-5.14851e-05
3.87244e-06
-5.25036e-05
5.42537e-06
-5.40338e-05
7.2719e-06
-5.60863e-05
9.45966e-06
-5.86291e-05
1.20497e-05
-6.15597e-05
1.51182e-05
-6.46686e-05
1.87534e-05
-6.75937e-05
2.30455e-05
-6.97685e-05
2.80607e-05
-7.03728e-05
3.3789e-05
-6.83168e-05
-6.23213e-05
-3.40647e-07
-8.08348e-05
-6.98764e-07
-8.29333e-05
-9.87847e-07
-8.24987e-05
-1.21514e-06
-8.17044e-05
-1.39081e-06
-8.08269e-05
-1.52548e-06
-7.99313e-05
-1.63014e-06
-7.90387e-05
-1.71577e-06
-7.8155e-05
-1.79303e-06
-7.72785e-05
-1.87193e-06
-7.6403e-05
-1.96154e-06
-7.5519e-05
-2.06965e-06
-7.46152e-05
-2.20254e-06
-7.36791e-05
-2.36469e-06
-7.26983e-05
-2.55861e-06
-7.16611e-05
-2.7847e-06
-7.05574e-05
-3.04113e-06
-6.938e-05
-3.32391e-06
-6.81246e-05
-3.62662e-06
-6.67912e-05
-3.94104e-06
-6.53844e-05
-4.25685e-06
-6.39139e-05
-4.56174e-06
-6.23956e-05
-4.84259e-06
-6.08491e-05
-5.08508e-06
-5.93006e-05
-5.27436e-06
-5.77815e-05
-5.39538e-06
-5.63276e-05
-5.43328e-06
-5.49789e-05
-5.37381e-06
-5.37787e-05
-5.20354e-06
-5.2773e-05
-4.91009e-06
-5.20098e-05
-4.48223e-06
-5.15382e-05
-3.9098e-06
-5.14084e-05
-3.18328e-06
-5.16708e-05
-2.29297e-06
-5.23754e-05
-1.22761e-06
-5.35689e-05
2.78185e-08
-5.52892e-05
1.49537e-06
-5.75538e-05
3.20819e-06
-6.03419e-05
5.21624e-06
-6.35678e-05
7.59151e-06
-6.70438e-05
1.04318e-05
-7.0434e-05
1.38596e-05
-7.31963e-05
1.80078e-05
-7.45209e-05
2.29773e-05
-7.32864e-05
-6.81152e-05
-5.7881e-07
-8.0256e-05
-1.14039e-06
-8.23717e-05
-1.6374e-06
-8.20017e-05
-2.07304e-06
-8.12688e-05
-2.45662e-06
-8.04433e-05
-2.79814e-06
-7.95898e-05
-3.10782e-06
-7.87291e-05
-3.39579e-06
-7.7867e-05
-3.67177e-06
-7.70025e-05
-3.94474e-06
-7.613e-05
-4.22267e-06
-7.52411e-05
-4.51226e-06
-7.43256e-05
-4.81868e-06
-7.33727e-05
-5.14536e-06
-7.23716e-05
-5.49385e-06
-7.13126e-05
-5.86373e-06
-7.01876e-05
-6.25251e-06
-6.89912e-05
-6.65566e-06
-6.77214e-05
-7.06665e-06
-6.63802e-05
-7.4771e-06
-6.49739e-05
-7.8769e-06
-6.35141e-05
-8.25536e-06
-6.20171e-05
-8.60022e-06
-6.05042e-05
-8.89887e-06
-5.9002e-05
-9.13861e-06
-5.75418e-05
-9.30707e-06
-5.61592e-05
-9.39266e-06
-5.48933e-05
-9.38497e-06
-5.37864e-05
-9.27512e-06
-5.28828e-05
-9.05613e-06
-5.22288e-05
-8.72307e-06
-5.18713e-05
-8.27313e-06
-5.18583e-05
-7.70549e-06
-5.22384e-05
-7.02072e-06
-5.30602e-05
-6.2196e-06
-5.43701e-05
-5.30105e-06
-5.62078e-05
-4.2586e-06
-5.85963e-05
-3.07493e-06
-6.15256e-05
-1.7149e-06
-6.49278e-05
-1.1608e-07
-6.86427e-05
1.82139e-06
-7.23715e-05
4.24304e-06
-7.56179e-05
7.33932e-06
-7.76172e-05
1.13202e-05
-7.72673e-05
-7.31479e-05
-7.80484e-07
-7.94755e-05
-1.53316e-06
-8.1619e-05
-2.22157e-06
-8.13133e-05
-2.84956e-06
-8.06408e-05
-3.42575e-06
-7.98671e-05
-3.9595e-06
-7.90561e-05
-4.46025e-06
-7.82283e-05
-4.93718e-06
-7.73901e-05
-5.39899e-06
-7.65407e-05
-5.85355e-06
-7.56755e-05
-6.3077e-06
-7.47869e-05
-6.76699e-06
-7.38663e-05
-7.23548e-06
-7.29042e-05
-7.71557e-06
-7.18915e-05
-8.20789e-06
-7.08203e-05
-8.71123e-06
-6.96842e-05
-9.22252e-06
-6.84799e-05
-9.73689e-06
-6.72071e-05
-1.02477e-05
-6.58694e-05
-1.0747e-05
-6.44747e-05
-1.12255e-05
-6.30356e-05
-1.16732e-05
-6.15694e-05
-1.20794e-05
-6.0098e-05
-1.24334e-05
-5.8648e-05
-1.27248e-05
-5.72504e-05
-1.29441e-05
-5.59398e-05
-1.30832e-05
-5.47542e-05
-1.31357e-05
-5.37339e-05
-1.30973e-05
-5.29213e-05
-1.29663e-05
-5.23597e-05
-1.27439e-05
-5.20936e-05
-1.24347e-05
-5.21676e-05
-1.2046e-05
-5.26271e-05
-1.15885e-05
-5.35177e-05
-1.10746e-05
-5.48839e-05
-1.05173e-05
-5.67651e-05
-9.92577e-06
-5.91878e-05
-9.30051e-06
-6.21509e-05
-8.62395e-06
-6.56044e-05
-7.84848e-06
-6.94182e-05
-6.8807e-06
-7.33392e-05
-5.56387e-06
-7.69348e-05
-3.66484e-06
-7.95162e-05
-8.77512e-07
-8.00546e-05
-7.71497e-05
-9.52536e-07
-7.8523e-05
-1.87796e-06
-8.06936e-05
-2.7401e-06
-8.04512e-05
-3.54323e-06
-7.98377e-05
-4.29556e-06
-7.91148e-05
-5.00576e-06
-7.83459e-05
-5.68239e-06
-7.75517e-05
-6.33364e-06
-7.67388e-05
-6.96711e-06
-7.59073e-05
-7.58955e-06
-7.5053e-05
-8.20663e-06
-7.41698e-05
-8.82278e-06
-7.32502e-05
-9.44097e-06
-7.2286e-05
-1.00626e-05
-7.12699e-05
-1.06875e-05
-7.01953e-05
-1.13138e-05
-6.90579e-05
-1.1938e-05
-6.78558e-05
-1.25549e-05
-6.65902e-05
-1.31582e-05
-6.52661e-05
-1.37402e-05
-6.38927e-05
-1.42926e-05
-6.24832e-05
-1.48065e-05
-6.10556e-05
-1.52727e-05
-5.96318e-05
-1.56827e-05
-5.82381e-05
-1.60285e-05
-5.69046e-05
-1.63036e-05
-5.56647e-05
-1.65032e-05
-5.45545e-05
-1.66249e-05
-5.36122e-05
-1.66689e-05
-5.28773e-05
-1.66385e-05
-5.23901e-05
-1.65409e-05
-5.21912e-05
-1.63869e-05
-5.23216e-05
-1.61918e-05
-5.28222e-05
-1.5975e-05
-5.37344e-05
-1.576e-05
-5.5099e-05
-1.55721e-05
-5.6953e-05
-1.5436e-05
-5.93239e-05
-1.53693e-05
-6.22176e-05
-1.53735e-05
-6.56002e-05
-1.542e-05
-6.93716e-05
-1.54309e-05
-7.33284e-05
-1.52544e-05
-7.71112e-05
-1.46377e-05
-8.0133e-05
-1.32032e-05
-8.14891e-05
-7.98856e-05
-1.09923e-06
-7.74237e-05
-2.17655e-06
-7.96163e-05
-3.1934e-06
-7.94343e-05
-4.15363e-06
-7.88774e-05
-5.06483e-06
-7.82036e-05
-5.93487e-06
-7.74758e-05
-6.77135e-06
-7.67152e-05
-7.58141e-06
-7.59288e-05
-8.37155e-06
-7.51171e-05
-9.14734e-06
-7.42772e-05
-9.91334e-06
-7.34038e-05
-1.06729e-05
-7.24906e-05
-1.14279e-05
-7.1531e-05
-1.2179e-05
-7.05188e-05
-1.29251e-05
-6.94492e-05
-1.36639e-05
-6.83192e-05
-1.43915e-05
-6.71282e-05
-1.51028e-05
-6.58788e-05
-1.57917e-05
-6.45772e-05
-1.64512e-05
-6.32332e-05
-1.70737e-05
-6.18607e-05
-1.76517e-05
-6.04776e-05
-1.81779e-05
-5.91056e-05
-1.86456e-05
-5.77704e-05
-1.90495e-05
-5.65007e-05
-1.9386e-05
-5.53283e-05
-1.96535e-05
-5.4287e-05
-1.98533e-05
-5.34124e-05
-1.99898e-05
-5.27408e-05
-2.0071e-05
-5.23089e-05
-2.0109e-05
-5.21532e-05
-2.01206e-05
-5.231e-05
-2.01275e-05
-5.28153e-05
-2.01568e-05
-5.37051e-05
-2.02409e-05
-5.50149e-05
-2.0416e-05
-5.67779e-05
-2.072e-05
-5.90199e-05
-2.11865e-05
-6.17511e-05
-2.18358e-05
-6.49509e-05
-2.26608e-05
-6.85466e-05
-2.36067e-05
-7.23825e-05
-2.45421e-05
-7.61758e-05
-2.52216e-05
-7.94534e-05
-2.52439e-05
-8.14668e-05
-8.10982e-05
-1.22238e-06
-7.62014e-05
-2.43052e-06
-7.84082e-05
-3.58258e-06
-7.82823e-05
-4.68141e-06
-7.77786e-05
-5.73375e-06
-7.71513e-05
-6.74651e-06
-7.64631e-05
-7.7263e-06
-7.57354e-05
-8.67916e-06
-7.49759e-05
-9.61044e-06
-7.41859e-05
-1.05246e-05
-7.33631e-05
-1.14251e-05
-7.25034e-05
-1.23142e-05
-7.16015e-05
-1.3193e-05
-7.06522e-05
-1.40611e-05
-6.96507e-05
-1.49172e-05
-6.85932e-05
-1.57582e-05
-6.74781e-05
-1.65802e-05
-6.63062e-05
-1.73782e-05
-6.50808e-05
-1.81465e-05
-6.3809e-05
-1.88787e-05
-6.2501e-05
-1.95684e-05
-6.1171e-05
-2.02094e-05
-5.98365e-05
-2.07961e-05
-5.85189e-05
-2.1324e-05
-5.72425e-05
-2.17901e-05
-5.60346e-05
-2.21935e-05
-5.49249e-05
-2.25359e-05
-5.39447e-05
-2.28217e-05
-5.31265e-05
-2.30592e-05
-5.25033e-05
-2.32603e-05
-5.21077e-05
-2.34415e-05
-5.1972e-05
-2.36243e-05
-5.21272e-05
-2.38356e-05
-5.2604e-05
-2.41083e-05
-5.34323e-05
-2.44819e-05
-5.46414e-05
-2.5001e-05
-5.62588e-05
-2.57139e-05
-5.8307e-05
-2.66679e-05
-6.07971e-05
-2.79008e-05
-6.37181e-05
-2.94275e-05
-6.70198e-05
-3.1221e-05
-7.05891e-05
-3.31822e-05
-7.42146e-05
-3.5099e-05
-7.75365e-05
-3.6592e-05
-7.99738e-05
-8.06317e-05
-1.32338e-06
-7.4878e-05
-2.64159e-06
-7.709e-05
-3.90939e-06
-7.70145e-05
-5.12824e-06
-7.65598e-05
-6.30381e-06
-7.59757e-05
-7.44201e-06
-7.53248e-05
-8.54833e-06
-7.46291e-05
-9.62772e-06
-7.38965e-05
-1.06844e-05
-7.31292e-05
-1.17217e-05
-7.23257e-05
-1.27421e-05
-7.1483e-05
-1.37469e-05
-7.05967e-05
-1.47363e-05
-6.96628e-05
-1.57095e-05
-6.86776e-05
-1.66642e-05
-6.76385e-05
-1.75975e-05
-6.65449e-05
-1.85052e-05
-6.53984e-05
-1.93827e-05
-6.42034e-05
-2.02245e-05
-6.29671e-05
-2.10254e-05
-6.17002e-05
-2.17798e-05
-6.04166e-05
-2.2483e-05
-5.91333e-05
-2.31311e-05
-5.78708e-05
-2.37216e-05
-5.6652e-05
-2.42538e-05
-5.55024e-05
-2.47292e-05
-5.44494e-05
-2.51523e-05
-5.35216e-05
-2.55306e-05
-5.27482e-05
-2.58753e-05
-5.21586e-05
-2.62018e-05
-5.17813e-05
-2.65299e-05
-5.16439e-05
-2.68846e-05
-5.17725e-05
-2.72967e-05
-5.21919e-05
-2.78033e-05
-5.29257e-05
-2.84483e-05
-5.39964e-05
-2.92823e-05
-5.54247e-05
-3.03612e-05
-5.72281e-05
-3.17425e-05
-5.94159e-05
-3.34786e-05
-6.1982e-05
-3.56056e-05
-6.48928e-05
-3.81254e-05
-6.80693e-05
-4.09794e-05
-7.13606e-05
-4.40079e-05
-7.4508e-05
-4.68921e-05
-7.70895e-05
-7.84439e-05
-1.40339e-06
-7.34746e-05
-2.81164e-06
-7.56818e-05
-4.17609e-06
-7.56501e-05
-5.4966e-06
-7.52393e-05
-6.77768e-06
-7.46946e-05
-8.0241e-06
-7.40784e-05
-9.24025e-06
-7.34129e-05
-1.04299e-05
-7.27068e-05
-1.15963e-05
-7.19628e-05
-1.27416e-05
-7.11804e-05
-1.38674e-05
-7.03572e-05
-1.49741e-05
-6.949e-05
-1.60612e-05
-6.85757e-05
-1.71273e-05
-6.76115e-05
-1.81699e-05
-6.65959e-05
-1.91857e-05
-6.55291e-05
-2.01708e-05
-6.44133e-05
-2.11208e-05
-6.32535e-05
-2.20308e-05
-6.20571e-05
-2.28964e-05
-6.08346e-05
-2.37133e-05
-5.95997e-05
-2.4478e-05
-5.83687e-05
-2.51882e-05
-5.71606e-05
-2.58434e-05
-5.59969e-05
-2.64447e-05
-5.4901e-05
-2.69962e-05
-5.38979e-05
-2.75044e-05
-5.30133e-05
-2.79795e-05
-5.22731e-05
-2.84351e-05
-5.1703e-05
-2.8889e-05
-5.13273e-05
-2.93637e-05
-5.11692e-05
-2.98866e-05
-5.12496e-05
-3.04908e-05
-5.15878e-05
-3.12157e-05
-5.22008e-05
-3.21079e-05
-5.31042e-05
-3.32208e-05
-5.43118e-05
-3.46146e-05
-5.58343e-05
-3.63535e-05
-5.7677e-05
-3.85008e-05
-5.98346e-05
-4.111e-05
-6.22835e-05
-4.42108e-05
-6.49685e-05
-4.77864e-05
-6.7785e-05
-5.17399e-05
-7.05545e-05
-5.58425e-05
-7.29869e-05
-7.46273e-05
-1.46362e-06
-7.2011e-05
-2.94275e-06
-7.42026e-05
-4.38543e-06
-7.42074e-05
-5.78979e-06
-7.38349e-05
-7.15906e-06
-7.33253e-05
-8.49683e-06
-7.27406e-05
-9.80636e-06
-7.21034e-05
-1.10903e-05
-7.14228e-05
-1.23508e-05
-7.07023e-05
-1.35892e-05
-6.9942e-05
-1.48061e-05
-6.91403e-05
-1.60012e-05
-6.8295e-05
-1.71733e-05
-6.74035e-05
-1.83207e-05
-6.64642e-05
-1.94405e-05
-6.54761e-05
-2.05295e-05
-6.44401e-05
-2.15839e-05
-6.33589e-05
-2.25997e-05
-6.22377e-05
-2.35727e-05
-6.10841e-05
-2.44992e-05
-5.99081e-05
-2.53761e-05
-5.87228e-05
-2.62012e-05
-5.75435e-05
-2.69738e-05
-5.6388e-05
-2.76948e-05
-5.52759e-05
-2.83674e-05
-5.42284e-05
-2.89974e-05
-5.3268e-05
-2.95933e-05
-5.24174e-05
-3.0167e-05
-5.16994e-05
-3.07343e-05
-5.11357e-05
-3.13146e-05
-5.0747e-05
-3.1932e-05
-5.05518e-05
-3.26152e-05
-5.05664e-05
-3.33984e-05
-5.08046e-05
-3.43217e-05
-5.12775e-05
-3.54319e-05
-5.1994e-05
-3.67831e-05
-5.29605e-05
-3.84366e-05
-5.41809e-05
-4.04591e-05
-5.56544e-05
-4.29202e-05
-5.73736e-05
-4.58855e-05
-5.93182e-05
-4.94069e-05
-6.14471e-05
-5.35053e-05
-6.36866e-05
-5.81457e-05
-6.59141e-05
-6.3198e-05
-6.79347e-05
-6.94476e-05
-1.50532e-06
-7.05057e-05
-3.03726e-06
-7.26707e-05
-4.54064e-06
-7.2704e-05
-6.0118e-06
-7.23637e-05
-7.45258e-06
-7.18846e-05
-8.86539e-06
-7.13278e-05
-1.02523e-05
-7.07164e-05
-1.1615e-05
-7.00601e-05
-1.29546e-05
-6.93627e-05
-1.42715e-05
-6.86251e-05
-1.55655e-05
-6.78463e-05
-1.68358e-05
-6.70247e-05
-1.80807e-05
-6.61587e-05
-1.92979e-05
-6.52469e-05
-2.04847e-05
-6.42893e-05
-2.16378e-05
-6.3287e-05
-2.27536e-05
-6.22431e-05
-2.38285e-05
-6.11628e-05
-2.48592e-05
-6.00534e-05
-2.58427e-05
-5.89247e-05
-2.67769e-05
-5.77887e-05
-2.76608e-05
-5.66596e-05
-2.84951e-05
-5.55537e-05
-2.92821e-05
-5.44888e-05
-3.00266e-05
-5.3484e-05
-3.07357e-05
-5.25589e-05
-3.14196e-05
-5.17335e-05
-3.20916e-05
-5.10274e-05
-3.27685e-05
-5.04588e-05
-3.3471e-05
-5.00445e-05
-3.42238e-05
-4.9799e-05
-3.5056e-05
-4.97342e-05
-3.60016e-05
-4.9859e-05
-3.70999e-05
-5.01792e-05
-3.83966e-05
-5.06974e-05
-3.99437e-05
-5.14134e-05
-4.18005e-05
-5.2324e-05
-4.40329e-05
-5.34221e-05
-4.67113e-05
-5.46952e-05
-4.99071e-05
-5.61223e-05
-5.36858e-05
-5.76684e-05
-5.80957e-05
-5.92767e-05
-6.3151e-05
-6.08588e-05
-6.88059e-05
-6.22798e-05
-6.3339e-05
-1.5299e-06
-6.89758e-05
-3.09778e-06
-7.11029e-05
-4.64544e-06
-7.11564e-05
-6.16727e-06
-7.08419e-05
-7.66371e-06
-7.03881e-05
-9.13596e-06
-6.98556e-05
-1.0585e-05
-6.92674e-05
-1.20115e-05
-6.86336e-05
-1.34156e-05
-6.79586e-05
-1.47969e-05
-6.72437e-05
-1.61547e-05
-6.64886e-05
-1.74874e-05
-6.56921e-05
-1.87931e-05
-6.4853e-05
-2.00692e-05
-6.39708e-05
-2.1313e-05
-6.30456e-05
-2.25212e-05
-6.20788e-05
-2.36906e-05
-6.10737e-05
-2.48182e-05
-6.00353e-05
-2.5901e-05
-5.89705e-05
-2.69371e-05
-5.78886e-05
-2.79253e-05
-5.68005e-05
-2.88657e-05
-5.57192e-05
-2.976e-05
-5.46594e-05
-3.06119e-05
-5.3637e-05
-3.14272e-05
-5.26687e-05
-3.22142e-05
-5.17719e-05
-3.29842e-05
-5.09635e-05
-3.37515e-05
-5.02601e-05
-3.45334e-05
-4.96768e-05
-3.53511e-05
-4.92268e-05
-3.62292e-05
-4.89209e-05
-3.71963e-05
-4.87672e-05
-3.82852e-05
-4.87701e-05
-3.95334e-05
-4.89309e-05
-4.09837e-05
-4.92471e-05
-4.26846e-05
-4.97126e-05
-4.46909e-05
-5.03177e-05
-4.70638e-05
-5.10491e-05
-4.98702e-05
-5.18888e-05
-5.31803e-05
-5.28122e-05
-5.70639e-05
-5.37848e-05
-6.15832e-05
-5.47575e-05
-6.67821e-05
-5.56599e-05
-7.26704e-05
-5.63915e-05
-5.68093e-05
-1.53896e-06
-6.74369e-05
-3.1273e-06
-6.95146e-05
-4.70401e-06
-6.95797e-05
-6.26147e-06
-6.92845e-05
-7.79869e-06
-6.88509e-05
-9.31565e-06
-6.83386e-05
-1.08123e-05
-6.77707e-05
-1.22883e-05
-6.71576e-05
-1.3743e-05
-6.65039e-05
-1.51753e-05
-6.58114e-05
-1.65839e-05
-6.508e-05
-1.79668e-05
-6.43092e-05
-1.93218e-05
-6.34981e-05
-2.06462e-05
-6.26464e-05
-2.19372e-05
-6.17545e-05
-2.31919e-05
-6.08242e-05
-2.44072e-05
-5.98584e-05
-2.55806e-05
-5.88619e-05
-2.671e-05
-5.78412e-05
-2.7794e-05
-5.68046e-05
-2.88322e-05
-5.57622e-05
-2.98257e-05
-5.47257e-05
-3.07773e-05
-5.37079e-05
-3.16913e-05
-5.27229e-05
-3.25747e-05
-5.17853e-05
-3.34366e-05
-5.091e-05
-3.42888e-05
-5.01113e-05
-3.5146e-05
-4.94029e-05
-3.60258e-05
-4.87969e-05
-3.69492e-05
-4.83034e-05
-3.794e-05
-4.79301e-05
-3.90257e-05
-4.76814e-05
-4.02373e-05
-4.75586e-05
-4.16094e-05
-4.75588e-05
-4.31809e-05
-4.76755e-05
-4.49955e-05
-4.7898e-05
-4.71018e-05
-4.82114e-05
-4.95539e-05
-4.8597e-05
-5.2411e-05
-4.90317e-05
-5.57368e-05
-4.94865e-05
-5.95965e-05
-4.9925e-05
-6.40535e-05
-5.03005e-05
-6.91621e-05
-5.05513e-05
-7.4958e-05
-5.05955e-05
-5.03225e-05
-1.53435e-06
-6.59026e-05
-3.12916e-06
-6.79198e-05
-4.72102e-06
-6.79878e-05
-6.30026e-06
-6.77052e-05
-7.86441e-06
-6.72867e-05
-9.41228e-06
-6.67907e-05
-1.09428e-05
-6.62402e-05
-1.24548e-05
-6.56456e-05
-1.3947e-05
-6.50118e-05
-1.54175e-05
-6.43408e-05
-1.68646e-05
-6.36329e-05
-1.82861e-05
-6.28877e-05
-1.96793e-05
-6.21048e-05
-2.10418e-05
-6.1284e-05
-2.23706e-05
-6.04257e-05
-2.36631e-05
-5.95317e-05
-2.49166e-05
-5.86048e-05
-2.61291e-05
-5.76494e-05
-2.7299e-05
-5.66713e-05
-2.84255e-05
-5.56781e-05
-2.9509e-05
-5.46786e-05
-3.05515e-05
-5.36832e-05
-3.15562e-05
-5.27032e-05
-3.25284e-05
-5.17506e-05
-3.34756e-05
-5.08382e-05
-3.44074e-05
-4.99783e-05
-3.53358e-05
-4.91829e-05
-3.62756e-05
-4.84631e-05
-3.72441e-05
-4.78284e-05
-3.82616e-05
-4.7286e-05
-3.93508e-05
-4.68409e-05
-4.05374e-05
-4.64948e-05
-4.185e-05
-4.6246e-05
-4.33199e-05
-4.60889e-05
-4.49816e-05
-4.60138e-05
-4.6873e-05
-4.60066e-05
-4.90356e-05
-4.60488e-05
-5.15149e-05
-4.61177e-05
-5.43604e-05
-4.61862e-05
-5.76249e-05
-4.62219e-05
-6.13637e-05
-4.61863e-05
-6.56313e-05
-4.60329e-05
-7.04779e-05
-4.57047e-05
-7.59427e-05
-4.51307e-05
-4.42204e-05
-1.51812e-06
-6.43845e-05
-3.10705e-06
-6.63308e-05
-4.70156e-06
-6.63933e-05
-6.28993e-06
-6.61169e-05
-7.86828e-06
-6.57084e-05
-9.43428e-06
-6.52247e-05
-1.0986e-05
-6.46885e-05
-1.25214e-05
-6.41102e-05
-1.40386e-05
-6.34947e-05
-1.55353e-05
-6.28441e-05
-1.70093e-05
-6.21589e-05
-1.84581e-05
-6.14389e-05
-1.98792e-05
-6.06838e-05
-2.12697e-05
-5.98934e-05
-2.26272e-05
-5.90682e-05
-2.39491e-05
-5.82098e-05
-2.52331e-05
-5.73208e-05
-2.64776e-05
-5.64049e-05
-2.76816e-05
-5.54674e-05
-2.88448e-05
-5.45149e-05
-2.99682e-05
-5.35552e-05
-3.10544e-05
-5.25971e-05
-3.21071e-05
-5.16504e-05
-3.31322e-05
-5.07255e-05
-3.41374e-05
-4.9833e-05
-3.51324e-05
-4.89832e-05
-3.61294e-05
-4.81859e-05
-3.71427e-05
-4.74498e-05
-3.81891e-05
-4.6782e-05
-3.92876e-05
-4.61875e-05
-4.04595e-05
-4.56689e-05
-4.17285e-05
-4.52258e-05
-4.31203e-05
-4.48542e-05
-4.46626e-05
-4.45466e-05
-4.63854e-05
-4.42911e-05
-4.83204e-05
-4.40715e-05
-5.0502e-05
-4.38672e-05
-5.29665e-05
-4.36532e-05
-5.57526e-05
-4.34001e-05
-5.89012e-05
-4.30734e-05
-6.24539e-05
-4.26336e-05
-6.64519e-05
-4.20348e-05
-7.09329e-05
-4.12237e-05
-7.59265e-05
-4.01372e-05
-3.86995e-05
-1.49249e-06
-6.2892e-05
-3.06495e-06
-6.47584e-05
-4.65101e-06
-6.48072e-05
-6.23713e-06
-6.45307e-05
-7.81806e-06
-6.41275e-05
-9.39044e-06
-6.36524e-05
-1.09515e-05
-6.31275e-05
-1.24986e-05
-6.25631e-05
-1.40292e-05
-6.1964e-05
-1.55408e-05
-6.13325e-05
-1.70308e-05
-6.06689e-05
-1.84965e-05
-5.99732e-05
-1.99352e-05
-5.9245e-05
-2.13445e-05
-5.84841e-05
-2.27217e-05
-5.7691e-05
-2.40647e-05
-5.68669e-05
-2.53715e-05
-5.6014e-05
-2.66408e-05
-5.51356e-05
-2.78721e-05
-5.42361e-05
-2.90656e-05
-5.33214e-05
-3.02229e-05
-5.23979e-05
-3.13467e-05
-5.14733e-05
-3.24413e-05
-5.05558e-05
-3.35128e-05
-4.96541e-05
-3.45688e-05
-4.87769e-05
-3.56193e-05
-4.79328e-05
-3.66758e-05
-4.71294e-05
-3.77521e-05
-4.63735e-05
-3.88641e-05
-4.567e-05
-4.00295e-05
-4.50221e-05
-4.12679e-05
-4.44306e-05
-4.26004e-05
-4.38932e-05
-4.405e-05
-4.34046e-05
-4.56407e-05
-4.29559e-05
-4.73977e-05
-4.2534e-05
-4.93473e-05
-4.21219e-05
-5.15165e-05
-4.1698e-05
-5.39331e-05
-4.12366e-05
-5.66256e-05
-4.07076e-05
-5.96226e-05
-4.00764e-05
-6.29522e-05
-3.9304e-05
-6.66407e-05
-3.83463e-05
-7.07104e-05
-3.71539e-05
-7.51762e-05
-3.56714e-05
-3.38344e-05
-1.45975e-06
-6.14322e-05
-3.00689e-06
-6.32112e-05
-4.57488e-06
-6.32392e-05
-6.14861e-06
-6.2957e-05
-7.72163e-06
-6.25545e-05
-9.2897e-06
-6.20843e-05
-1.08493e-05
-6.15679e-05
-1.23973e-05
-6.10151e-05
-1.39307e-05
-6.04307e-05
-1.54466e-05
-5.98166e-05
-1.69422e-05
-5.91733e-05
-1.84149e-05
-5.85006e-05
-1.98619e-05
-5.7798e-05
-2.12808e-05
-5.70653e-05
-2.26691e-05
-5.63027e-05
-2.4025e-05
-5.5511e-05
-2.53469e-05
-5.46921e-05
-2.66337e-05
-5.38487e-05
-2.78853e-05
-5.29845e-05
-2.91023e-05
-5.21043e-05
-3.02867e-05
-5.12135e-05
-3.14413e-05
-5.03186e-05
-3.25709e-05
-4.94263e-05
-3.36812e-05
-4.85437e-05
-3.47801e-05
-4.7678e-05
-3.5877e-05
-4.68359e-05
-3.69829e-05
-4.60234e-05
-3.8111e-05
-4.52454e-05
-3.92757e-05
-4.45053e-05
-4.04933e-05
-4.38045e-05
-4.17814e-05
-4.31425e-05
-4.3159e-05
-4.25157e-05
-4.46457e-05
-4.19178e-05
-4.62623e-05
-4.13393e-05
-4.80295e-05
-4.07668e-05
-4.99683e-05
-4.01831e-05
-5.20994e-05
-3.95669e-05
-5.44429e-05
-3.88931e-05
-5.70181e-05
-3.81324e-05
-5.9843e-05
-3.72515e-05
-6.29334e-05
-3.62136e-05
-6.6302e-05
-3.49777e-05
-6.99568e-05
-3.34992e-05
-7.38983e-05
-3.17299e-05
-2.96164e-05
-1.42207e-06
-6.00101e-05
-2.93681e-06
-6.16965e-05
-4.47853e-06
-6.16975e-05
-6.031e-06
-6.14046e-05
-7.5868e-06
-6.09987e-05
-9.14091e-06
-6.05302e-05
-1.06892e-05
-6.00195e-05
-1.22282e-05
-5.94761e-05
-1.37545e-05
-5.89044e-05
-1.5265e-05
-5.8306e-05
-1.67568e-05
-5.76814e-05
-1.82272e-05
-5.70302e-05
-1.96735e-05
-5.63517e-05
-2.10933e-05
-5.56455e-05
-2.24845e-05
-5.49115e-05
-2.38453e-05
-5.41502e-05
-2.51745e-05
-5.33629e-05
-2.64714e-05
-5.25518e-05
-2.77361e-05
-5.17199e-05
-2.89696e-05
-5.08708e-05
-3.01738e-05
-5.00093e-05
-3.1352e-05
-4.91404e-05
-3.25087e-05
-4.82696e-05
-3.36498e-05
-4.74026e-05
-3.47827e-05
-4.65451e-05
-3.59163e-05
-4.57023e-05
-3.70611e-05
-4.48787e-05
-3.82289e-05
-4.40776e-05
-3.9433e-05
-4.33011e-05
-4.06881e-05
-4.25495e-05
-4.20097e-05
-4.18208e-05
-4.34144e-05
-4.1111e-05
-4.49191e-05
-4.04132e-05
-4.65409e-05
-3.97175e-05
-4.82968e-05
-3.90109e-05
-5.02031e-05
-3.82768e-05
-5.22751e-05
-3.7495e-05
-5.45263e-05
-3.66418e-05
-5.69687e-05
-3.569e-05
-5.96113e-05
-3.46089e-05
-6.24603e-05
-3.33647e-05
-6.55173e-05
-3.19207e-05
-6.87787e-05
-3.02378e-05
-7.22338e-05
-2.82748e-05
-2.59891e-05
-1.38138e-06
-5.86288e-05
-2.85834e-06
-6.02195e-05
-4.36703e-06
-6.01888e-05
-5.89062e-06
-5.9881e-05
-7.42099e-06
-5.94683e-05
-8.95257e-06
-5.89986e-05
-1.04808e-05
-5.84913e-05
-1.20019e-05
-5.79551e-05
-1.35121e-05
-5.73941e-05
-1.50083e-05
-5.68098e-05
-1.64875e-05
-5.62022e-05
-1.79469e-05
-5.55708e-05
-1.9384e-05
-5.49146e-05
-2.07966e-05
-5.42329e-05
-2.21826e-05
-5.35254e-05
-2.35407e-05
-5.27921e-05
-2.48697e-05
-5.20339e-05
-2.61692e-05
-5.12523e-05
-2.74396e-05
-5.04495e-05
-2.86821e-05
-4.96284e-05
-2.98987e-05
-4.87927e-05
-3.10927e-05
-4.79463e-05
-3.22685e-05
-4.70937e-05
-3.34318e-05
-4.62393e-05
-3.45894e-05
-4.53875e-05
-3.57497e-05
-4.4542e-05
-3.69223e-05
-4.37061e-05
-3.81178e-05
-4.2882e-05
-3.93483e-05
-4.20706e-05
-4.06265e-05
-4.12712e-05
-4.19661e-05
-4.04812e-05
-4.33811e-05
-3.96959e-05
-4.4886e-05
-3.89083e-05
-4.64947e-05
-3.81088e-05
-4.82206e-05
-3.72849e-05
-5.00762e-05
-3.64212e-05
-5.20721e-05
-3.54991e-05
-5.42168e-05
-3.44971e-05
-5.65163e-05
-3.33905e-05
-5.89733e-05
-3.2152e-05
-6.15863e-05
-3.07516e-05
-6.43493e-05
-2.91576e-05
-6.72506e-05
-2.73365e-05
-7.02712e-05
-2.52542e-05
-2.28768e-05
-1.33931e-06
-5.72895e-05
-2.77466e-06
-5.87841e-05
-4.24491e-06
-5.87186e-05
-5.73323e-06
-5.83927e-05
-7.23113e-06
-5.79704e-05
-8.73267e-06
-5.74971e-05
-1.02331e-05
-5.69909e-05
-1.17281e-05
-5.646e-05
-1.32142e-05
-5.5908e-05
-1.4688e-05
-5.5336e-05
-1.61465e-05
-5.47437e-05
-1.75869e-05
-5.41303e-05
-1.9007e-05
-5.34945e-05
-2.04046e-05
-5.28354e-05
-2.17779e-05
-5.21521e-05
-2.31256e-05
-5.14444e-05
-2.4447e-05
-5.07126e-05
-2.57419e-05
-4.99575e-05
-2.70106e-05
-4.91807e-05
-2.82546e-05
-4.83844e-05
-2.94759e-05
-4.75713e-05
-3.06778e-05
-4.67445e-05
-3.18643e-05
-4.59072e-05
-3.30409e-05
-4.50628e-05
-3.42138e-05
-4.42145e-05
-3.53907e-05
-4.33651e-05
-3.65801e-05
-4.25167e-05
-3.77916e-05
-4.16705e-05
-3.90357e-05
-4.08266e-05
-4.03235e-05
-3.99834e-05
-4.16666e-05
-3.91381e-05
-4.30769e-05
-3.82856e-05
-4.45662e-05
-3.7419e-05
-4.61458e-05
-3.65293e-05
-4.7826e-05
-3.56047e-05
-4.96159e-05
-3.46313e-05
-5.15225e-05
-3.35925e-05
-5.35504e-05
-3.24691e-05
-5.57013e-05
-3.12396e-05
-5.7973e-05
-2.98802e-05
-6.03594e-05
-2.83652e-05
-6.28494e-05
-2.66677e-05
-6.5426e-05
-2.47599e-05
-6.8066e-05
-2.26142e-05
-2.02039e-05
-1.29712e-06
-5.59923e-05
-2.6884e-06
-5.73928e-05
-4.11611e-06
-5.72909e-05
-5.56394e-06
-5.69448e-05
-7.02341e-06
-5.6511e-05
-8.48844e-06
-5.60321e-05
-9.95409e-06
-5.55252e-05
-1.14161e-05
-5.4998e-05
-1.28708e-05
-5.44533e-05
-1.43148e-05
-5.3892e-05
-1.57452e-05
-5.33133e-05
-1.71595e-05
-5.27161e-05
-1.85552e-05
-5.20988e-05
-1.99305e-05
-5.14601e-05
-2.12838e-05
-5.07988e-05
-2.26141e-05
-5.01141e-05
-2.39207e-05
-4.9406e-05
-2.52036e-05
-4.86746e-05
-2.64634e-05
-4.79209e-05
-2.77014e-05
-4.71464e-05
-2.89197e-05
-4.6353e-05
-3.01214e-05
-4.55428e-05
-3.13104e-05
-4.47183e-05
-3.24914e-05
-4.38818e-05
-3.36702e-05
-4.30356e-05
-3.48537e-05
-4.21816e-05
-3.60493e-05
-4.13211e-05
-3.72655e-05
-4.04543e-05
-3.85113e-05
-3.95808e-05
-3.97961e-05
-3.86986e-05
-4.11298e-05
-3.78044e-05
-4.2522e-05
-3.68934e-05
-4.39822e-05
-3.59588e-05
-4.55193e-05
-3.49922e-05
-4.7141e-05
-3.3983e-05
-4.88535e-05
-3.29188e-05
-5.0661e-05
-3.1785e-05
-5.25652e-05
-3.05649e-05
-5.45647e-05
-2.92401e-05
-5.66545e-05
-2.77904e-05
-5.88252e-05
-2.61945e-05
-6.1063e-05
-2.44299e-05
-6.33487e-05
-2.24742e-05
-6.56572e-05
-2.03056e-05
-1.79038e-05
-1.25573e-06
-5.47366e-05
-2.60164e-06
-5.60469e-05
-3.98381e-06
-5.59087e-05
-5.38706e-06
-5.55416e-05
-6.80318e-06
-5.50948e-05
-8.2262e-06
-5.4609e-05
-9.65123e-06
-5.41002e-05
-1.1074e-05
-5.35752e-05
-1.24909e-05
-5.30365e-05
-1.38986e-05
-5.24843e-05
-1.52943e-05
-5.19176e-05
-1.66755e-05
-5.13349e-05
-1.80401e-05
-5.07342e-05
-1.93864e-05
-5.01139e-05
-2.0713e-05
-4.94722e-05
-2.20189e-05
-4.88082e-05
-2.33038e-05
-4.8121e-05
-2.45678e-05
-4.74106e-05
-2.58115e-05
-4.66772e-05
-2.70362e-05
-4.59217e-05
-2.8244e-05
-4.51452e-05
-2.94377e-05
-4.43491e-05
-3.06207e-05
-4.35352e-05
-3.17975e-05
-4.2705e-05
-3.29732e-05
-4.18599e-05
-3.41537e-05
-4.10012e-05
-3.53455e-05
-4.01292e-05
-3.65558e-05
-3.92439e-05
-3.77924e-05
-3.83443e-05
-3.90629e-05
-3.7428e-05
-4.03756e-05
-3.64917e-05
-4.17381e-05
-3.55308e-05
-4.3158e-05
-3.45389e-05
-4.46418e-05
-3.35084e-05
-4.6195e-05
-3.24298e-05
-4.78216e-05
-3.12922e-05
-4.95235e-05
-3.0083e-05
-5.13004e-05
-2.87881e-05
-5.31486e-05
-2.73918e-05
-5.50615e-05
-2.58776e-05
-5.70281e-05
-2.42278e-05
-5.90336e-05
-2.24244e-05
-6.10581e-05
-2.04497e-05
-6.3077e-05
-1.82868e-05
-1.59208e-05
-1.21576e-06
-5.35208e-05
-2.51581e-06
-5.47468e-05
-3.85047e-06
-5.4574e-05
-5.20599e-06
-5.41861e-05
-6.57482e-06
-5.3726e-05
-7.95129e-06
-5.32326e-05
-9.33067e-06
-5.27208e-05
-1.07089e-05
-5.2197e-05
-1.20823e-05
-5.1663e-05
-1.34479e-05
-5.11187e-05
-1.48029e-05
-5.05626e-05
-1.6145e-05
-4.99928e-05
-1.74724e-05
-4.94069e-05
-1.87833e-05
-4.88029e-05
-2.00768e-05
-4.81788e-05
-2.1352e-05
-4.7533e-05
-2.26086e-05
-4.68644e-05
-2.3847e-05
-4.61723e-05
-2.50677e-05
-4.54566e-05
-2.6272e-05
-4.47174e-05
-2.74619e-05
-4.39553e-05
-2.86399e-05
-4.31712e-05
-2.98091e-05
-4.2366e-05
-3.09734e-05
-4.15407e-05
-3.21372e-05
-4.06961e-05
-3.33057e-05
-3.98327e-05
-3.44843e-05
-3.89506e-05
-3.56791e-05
-3.80491e-05
-3.68965e-05
-3.71269e-05
-3.81429e-05
-3.61816e-05
-3.94247e-05
-3.521e-05
-4.07479e-05
-3.42075e-05
-4.21182e-05
-3.31686e-05
-4.35404e-05
-3.20862e-05
-4.50179e-05
-3.09522e-05
-4.65531e-05
-2.97571e-05
-4.8146e-05
-2.84901e-05
-4.97946e-05
-2.71394e-05
-5.14943e-05
-2.56922e-05
-5.32372e-05
-2.41347e-05
-5.5012e-05
-2.2453e-05
-5.68036e-05
-2.06327e-05
-5.85931e-05
-1.86602e-05
-6.03571e-05
-1.65228e-05
-1.42097e-05
-1.17745e-06
-5.23433e-05
-2.43178e-06
-5.34925e-05
-3.71767e-06
-5.32881e-05
-5.02321e-06
-5.28805e-05
-6.34168e-06
-5.24075e-05
-7.6679e-06
-5.19063e-05
-8.99746e-06
-5.13913e-05
-1.03265e-05
-5.08679e-05
-1.16516e-05
-5.03379e-05
-1.297e-05
-4.98004e-05
-1.42789e-05
-4.92536e-05
-1.55765e-05
-4.86952e-05
-1.68609e-05
-4.81226e-05
-1.81308e-05
-4.7533e-05
-1.93852e-05
-4.69244e-05
-2.06236e-05
-4.62946e-05
-2.18459e-05
-4.56421e-05
-2.30522e-05
-4.4966e-05
-2.42434e-05
-4.42654e-05
-2.54207e-05
-4.35401e-05
-2.65857e-05
-4.27903e-05
-2.77407e-05
-4.20162e-05
-2.88886e-05
-4.12182e-05
-3.00325e-05
-4.03968e-05
-3.11764e-05
-3.95522e-05
-3.23244e-05
-3.86847e-05
-3.34813e-05
-3.77937e-05
-3.4652e-05
-3.68784e-05
-3.58415e-05
-3.59373e-05
-3.70551e-05
-3.4968e-05
-3.82976e-05
-3.39675e-05
-3.95737e-05
-3.29314e-05
-4.08873e-05
-3.18549e-05
-4.22418e-05
-3.07318e-05
-4.3639e-05
-2.9555e-05
-4.50796e-05
-2.83164e-05
-4.65627e-05
-2.70071e-05
-4.80849e-05
-2.56172e-05
-4.96409e-05
-2.41362e-05
-5.12224e-05
-2.25532e-05
-5.28182e-05
-2.08571e-05
-5.4414e-05
-1.9037e-05
-5.5992e-05
-1.70822e-05
-5.75311e-05
-1.49837e-05
-1.27336e-05
-1.14074e-06
-5.12026e-05
-2.34974e-06
-5.22835e-05
-3.58622e-06
-5.20516e-05
-4.84019e-06
-5.16266e-05
-6.10598e-06
-5.11417e-05
-7.37904e-06
-5.06333e-05
-8.65536e-06
-5.0115e-05
-9.93139e-06
-4.95919e-05
-1.1204e-05
-4.90652e-05
-1.24706e-05
-4.85338e-05
-1.37288e-05
-4.79954e-05
-1.49769e-05
-4.74472e-05
-1.62132e-05
-4.68862e-05
-1.74368e-05
-4.63095e-05
-1.86468e-05
-4.57144e-05
-1.98428e-05
-4.50985e-05
-2.10249e-05
-4.446e-05
-2.21934e-05
-4.37975e-05
-2.3349e-05
-4.31098e-05
-2.44928e-05
-4.23963e-05
-2.56263e-05
-4.16567e-05
-2.67516e-05
-4.08909e-05
-2.78711e-05
-4.00987e-05
-2.89874e-05
-3.92804e-05
-3.01039e-05
-3.84358e-05
-3.1224e-05
-3.75646e-05
-3.23515e-05
-3.66662e-05
-3.34903e-05
-3.57396e-05
-3.46444e-05
-3.47832e-05
-3.58178e-05
-3.37946e-05
-3.70143e-05
-3.2771e-05
-3.8237e-05
-3.17087e-05
-3.94886e-05
-3.06032e-05
-4.07712e-05
-2.94493e-05
-4.20853e-05
-2.82408e-05
-4.34306e-05
-2.69711e-05
-4.4805e-05
-2.56327e-05
-4.62047e-05
-2.42175e-05
-4.76237e-05
-2.27172e-05
-4.90538e-05
-2.11231e-05
-5.04842e-05
-1.94267e-05