/*--------------------------------*- C++ -*----------------------------------*\
| =========                 |                                                 |
| \\      /  F ield         | OpenFOAM: The Open Source CFD Toolbox           |
|  \\    /   O peration     | Version:  5.0                                   |
|   \\  /    A nd           | Web:      www.OpenFOAM.org                      |
|    \\/     M anipulation  |                                                 |
\*---------------------------------------------------------------------------*/
FoamFile
{
    version     2.0;
    format      ascii;
    class       volScalarField;
    location    "0.8";
    object      alpha.water;
}
// * * * * * * * * * * * * * * * * * * * * * * * * * * * * * * * * * * * * * //

dimensions      [0 0 0 0 0 0 0];

internalField   nonuniform List<scalar> 
1935
(
1
1
1
1
1
1
1
1
1
1
1
1
1
1
1
1
1
1
1
1
1
1
1
1
1
1
1
1
1
1
1
1
1
1
1
1
0.997973
0.978001
0.977119
1
0.999615
0.995927
0.993075
0.995885
1
1
1
1
1
1
1
1
1
1
1
1
1
1
1
1
1
1
1
1
1
1
1
1
1
1
1
1
1
1
1
1
1
1
1
1
0.999178
0.986806
0.979245
0.989171
0.991462
0.974945
0.97196
0.971987
1
1
1
1
1
1
1
1
1
1
1
1
1
1
1
1
1
1
1
1
1
1
1
1
1
1
1
1
1
1
1
1
1
1
1
1
1
1
1
0.996577
0.975538
0.972038
0.971928
0.972635
1
1
1
1
1
1
1
1
1
1
1
1
1
1
1
1
1
1
1
1
1
1
1
1
1
1
1
1
1
1
1
1
1
1
1
1
1
1
1
1
1
0.991037
0.983768
0.99528
1
1
1
1
1
1
1
1
1
1
1
1
1
1
1
1
1
1
1
1
1
1
1
1
1
1
1
1
1
1
1
1
1
1
1
1
1
1
1
1
1
1
1
1
1
1
1
1
1
1
1
1
1
1
1
1
1
1
1
1
1
1
1
1
1
1
1
1
1
1
1
1
1
1
1
1
1
1
1
1
1
1
1
1
1
1
1
1
1
1
1
1
1
1
1
1
1
1
1
1
1
1
1
1
1
1
1
1
1
1
1
1
1
1
1
1
1
1
1
1
1
1
1
1
1
1
1
1
1
1
1
1
1
1
1
1
1
1
1
1
1
1
1
1
1
1
1
1
1
1
1
1
1
1
1
1
1
1
1
1
1
1
1
1
1
1
1
1
1
1
1
1
1
1
1
1
1
1
1
1
1
1
1
1
1
1
1
1
1
1
1
1
1
1
1
1
1
1
1
1
1
1
1
1
1
1
1
1
1
1
1
1
1
1
1
1
1
1
1
1
0.529763
0.564613
0.578518
0.589383
0.614195
0.659687
0.724802
0.802153
0.880933
0.946781
0.993981
1
1
1
1
1
1
1
1
1
1
1
1
1
1
1
1
1
1
1
1
1
1
1
1
1
1
1
1
1
1
1
1
1
0.00523693
0.00926905
0.0123204
0.0151951
0.0209222
0.0335072
0.058351
0.100961
0.16792
0.267253
0.401838
0.576681
0.738475
0.870067
0.964929
1
1
1
1
1
1
1
1
1
1
1
1
1
1
1
1
1
1
1
1
1
1
1
1
1
1
1
1
1
-3.16381e-10
3.2798e-06
6.97802e-06
1.04033e-05
1.45805e-05
2.17159e-05
3.43973e-05
5.53962e-05
8.82092e-05
0.000138245
0.000343115
0.0140576
0.0621733
0.153878
0.29495
0.494421
0.708478
0.879849
0.981983
1
1
1
1
1
1
1
1
1
1
1
1
1
1
1
1
1
1
1
1
1
1
1
1
1
-3.98675e-12
6.35287e-08
1.79027e-07
3.13576e-07
4.82033e-07
7.54079e-07
1.22195e-06
1.98728e-06
3.19697e-06
5.16654e-06
8.83979e-06
1.96549e-05
4.73198e-05
9.49619e-05
0.000170455
0.00460452
0.0477186
0.151639
0.327946
0.581139
0.814727
0.960617
1
1
1
1
1
1
1
1
1
1
1
1
1
1
1
1
1
1
1
1
1
1
-2.93267e-13
1.27198e-09
4.47405e-09
9.13768e-09
1.55487e-08
2.59812e-08
4.38293e-08
7.32012e-08
1.20796e-07
2.03067e-07
3.67596e-07
8.26789e-07
1.92526e-06
3.84857e-06
7.47248e-06
1.46225e-05
3.96943e-05
8.60607e-05
0.000168438
0.014562
0.0901703
0.243643
0.498797
0.781612
0.955415
1
1
1
1
1
1
1
1
1
1
1
1
0.999999
0.999999
0.999999
0.999999
1
1
1
-1.83535e-13
2.60713e-11
1.0779e-10
2.52494e-10
4.59533e-10
8.25663e-10
1.46758e-09
2.55273e-09
4.38625e-09
7.77712e-09
1.53366e-08
3.54128e-08
8.22924e-08
1.63289e-07
3.12724e-07
6.51196e-07
1.6962e-06
3.72493e-06
6.6403e-06
1.63193e-05
4.33731e-05
8.51356e-05
0.00516691
0.0639059
0.201561
0.439344
0.742448
0.943134
0.998611
0.999999
0.999997
0.999997
0.999997
0.999998
0.999997
0.999997
0.999993
0.99999
0.999985
0.99998
0.999983
0.999996
1
0.999999
0
6.59488e-13
3.11828e-12
7.33277e-12
-1.03372e-13
-3.53913e-13
-8.43984e-13
-1.12159e-12
-4.11392e-13
7.68849e-11
5.89826e-10
1.42538e-09
3.40764e-09
7.08782e-09
1.36243e-08
2.98154e-08
7.52963e-08
1.57005e-07
3.05554e-07
7.03795e-07
1.75706e-06
2.83833e-06
6.39809e-06
1.80598e-05
3.06974e-05
0.00145754
0.0379294
0.146239
0.357218
0.653925
0.863594
0.944667
0.982353
0.999577
0.999873
0.999857
0.999837
0.999803
0.999757
0.999728
0.999795
0.999964
0.999996
0.999986
0
0
7.04584e-14
-2.00855e-21
-4.98341e-12
-1.44815e-10
-3.78616e-10
-5.971e-10
-5.70897e-10
-2.63326e-13
-1.24703e-12
-2.64027e-13
1.18292e-11
2.87707e-10
5.73068e-10
1.28093e-09
3.24109e-09
6.33055e-09
1.21055e-08
2.7918e-08
6.15745e-08
1.09462e-07
2.27607e-07
6.23138e-07
7.38918e-07
1.19674e-06
2.8467e-06
2.19003e-06
8.99055e-06
0.00528641
0.0492961
0.188547
0.402576
0.578811
0.706777
0.7926
0.848856
0.879008
0.903605
0.935368
0.987232
0.999702
0.999964
0.999894
-2.98981e-13
-4.8235e-14
1.37481e-15
8.56938e-15
-1.70849e-11
-8.34516e-11
-2.25644e-10
-4.52703e-10
-7.30578e-10
-9.37851e-10
-9.61261e-10
-7.01354e-10
-1.10613e-13
-1.65109e-12
-2.75557e-12
-5.46185e-12
-1.10116e-11
-1.66176e-11
-2.31319e-11
-2.72789e-11
-9.45827e-13
-2.31325e-12
8.24858e-09
1.84604e-08
2.52427e-08
2.97085e-08
5.92532e-08
4.37075e-08
4.64377e-10
1.14506e-25
1.78764e-24
-1.20144e-21
-8.33037e-17
-9.9595e-14
0.00403357
0.0787771
0.130592
0.166485
0.202095
0.264764
0.478108
0.880045
0.999693
0.999409
-1.26392e-13
-2.87443e-14
-5.77503e-15
1.50591e-16
-2.62093e-12
-1.39948e-11
-4.39716e-11
-1.04241e-10
-2.01713e-10
-3.23965e-10
-4.45391e-10
-5.2295e-10
-5.24972e-10
-5.24103e-10
-7.57282e-10
-1.537e-09
-3.23363e-09
-6.42835e-09
-1.16605e-08
-1.73162e-08
-1.65826e-08
-7.96262e-09
-4.22306e-12
-4.24004e-12
-1.1362e-14
-9.34313e-16
-3.32349e-15
-4.0088e-12
-1.77064e-12
-2.15945e-13
-9.32649e-12
-8.49439e-11
-3.0909e-10
-1.21756e-10
0
8.54417e-11
2.08154e-09
4.28034e-08
8.50681e-07
1.89179e-05
0.000494375
0.339372
0.989337
0.997018
-4.25716e-14
-8.49582e-15
-3.08693e-15
-1.53669e-15
-2.21861e-13
-1.38099e-12
-5.15652e-12
-1.45372e-11
-3.33742e-11
-6.39073e-11
-1.05848e-10
-1.54297e-10
-2.09764e-10
-3.12847e-10
-6.20306e-10
-1.5034e-09
-3.66248e-09
-8.21035e-09
-1.67044e-08
-3.06937e-08
-4.97411e-08
-7.26615e-08
-9.85767e-08
-1.23214e-07
-1.39492e-07
-1.51069e-07
-1.49891e-07
-1.29633e-07
-9.81525e-08
-3.63947e-08
-5.77821e-10
-2.31273e-09
-4.38413e-09
-1.38784e-09
1.11727e-25
8.41362e-10
2.19609e-08
4.36269e-07
6.86028e-06
8.39222e-05
0.00079725
0.103425
0.824941
0.989488
-1.17141e-14
-2.16063e-15
-7.68194e-16
-5.19021e-16
-1.29015e-14
-9.26365e-14
-4.14061e-13
-1.40026e-12
-3.83639e-12
-8.73618e-12
-1.71659e-11
-3.00142e-11
-5.08619e-11
-9.94971e-11
-2.49714e-10
-7.04043e-10
-1.90979e-09
-4.6976e-09
-1.04086e-08
-2.0863e-08
-3.76125e-08
-6.17445e-08
-9.47898e-08
-1.35791e-07
-1.77e-07
-2.18029e-07
-2.54613e-07
-2.74258e-07
-2.70084e-07
-2.36611e-07
-1.84029e-07
-1.32153e-07
-5.65152e-08
-1.1658e-08
-1.4184e-09
-2.2578e-11
1.84581e-08
3.44888e-07
4.79041e-06
5.27502e-05
0.000481801
0.0637853
0.700352
0.968134
0.384755
-2.41486e-15
-4.32381e-16
-1.55629e-16
-1.48317e-16
-7.75066e-16
-5.01223e-15
-2.51857e-14
-1.00505e-13
-3.28121e-13
-8.89957e-13
-2.07348e-12
-4.32812e-12
-9.06328e-12
-2.28393e-11
-7.13358e-11
-2.33376e-10
-7.06168e-10
-1.90668e-09
-4.59919e-09
-9.9898e-09
-1.9563e-08
-3.49192e-08
-5.79915e-08
-8.9917e-08
-1.28017e-07
-1.71048e-07
-2.15711e-07
-2.54143e-07
-2.76271e-07
-2.75365e-07
-2.50214e-07
-2.12263e-07
-1.52637e-07
-9.0242e-08
-3.54115e-08
-2.74551e-11
7.76516e-09
1.59415e-07
2.37491e-06
2.82254e-05
0.000288834
0.0300472
0.588334
0.933653
0.257784
-3.42946e-16
-6.25545e-17
-3.14452e-17
-5.70687e-17
-1.68646e-16
-5.61358e-16
-1.98116e-15
-7.16227e-15
-2.46048e-14
-7.53158e-14
-2.03177e-13
-5.00538e-13
-1.28792e-12
-4.12937e-12
-1.58072e-11
-5.98722e-11
-2.03127e-10
-6.05509e-10
-1.59816e-09
-3.77501e-09
-8.02112e-09
-1.54958e-08
-2.76842e-08
-4.60183e-08
-7.0514e-08
-1.01012e-07
-1.36004e-07
-1.7154e-07
-2.00517e-07
-2.16597e-07
-2.15692e-07
-2.00078e-07
-1.67454e-07
-1.24673e-07
-7.84407e-08
-1.9121e-08
-1.15961e-10
6.30359e-08
1.14195e-06
1.61542e-05
0.000194249
0.00973956
0.461691
0.874241
0.208638
-3.12658e-17
-7.37031e-18
-9.72907e-18
-2.92185e-17
-8.86336e-17
-2.46783e-16
-6.20661e-16
-1.49139e-15
-3.642e-15
-9.19585e-15
-2.33981e-14
-5.95789e-14
-1.69657e-13
-6.34508e-13
-2.84248e-12
-1.23283e-11
-4.70494e-11
-1.55901e-10
-4.53458e-10
-1.17241e-09
-2.71487e-09
-5.6913e-09
-1.09649e-08
-1.95628e-08
-3.21848e-08
-4.93423e-08
-7.08686e-08
-9.53386e-08
-1.19143e-07
-1.38097e-07
-1.48513e-07
-1.48981e-07
-1.37719e-07
-1.16256e-07
-8.67187e-08
-4.64661e-08
-7.15055e-24
2.54462e-08
5.81874e-07
9.78901e-06
0.000127957
0.0023329
0.32902
0.779614
0.249834
-2.26753e-18
-1.60366e-18
-4.76441e-18
-1.65278e-17
-5.14366e-17
-1.42912e-16
-3.48939e-16
-7.79159e-16
-1.6584e-15
-3.46072e-15
-7.19147e-15
-1.51326e-14
-3.49076e-14
-1.07366e-13
-4.58668e-13
-2.12862e-12
-9.00659e-12
-3.32211e-11
-1.07113e-10
-3.0521e-10
-7.75001e-10
-1.77237e-09
-3.70182e-09
-7.12272e-09
-1.26164e-08
-2.07563e-08
-3.18966e-08
-4.58578e-08
-6.13179e-08
-7.62234e-08
-8.82846e-08
-9.56412e-08
-9.64204e-08
-9.02679e-08
-7.70613e-08
-5.55112e-08
0
8.19468e-09
2.62547e-07
5.52603e-06
8.13371e-05
0.00120739
0.209485
0.666233
0.378995
-5.27262e-19
-7.58843e-19
-2.63366e-18
-9.47944e-18
-2.9886e-17
-8.34362e-17
-2.0414e-16
-4.58816e-16
-9.84828e-16
-2.05409e-15
-4.17977e-15
-8.30981e-15
-1.64165e-14
-3.49658e-14
-9.61384e-14
-3.61618e-13
-1.52278e-12
-6.05522e-12
-2.15072e-11
-6.76974e-11
-1.89424e-10
-4.75231e-10
-1.08261e-09
-2.26017e-09
-4.33187e-09
-7.68522e-09
-1.26983e-08
-1.95968e-08
-2.814e-08
-3.76241e-08
-4.70068e-08
-5.50773e-08
-6.04285e-08
-6.20582e-08
-5.94305e-08
-5.18449e-08
-2.33799e-08
-6.98356e-11
8.39527e-08
2.31074e-06
4.28459e-05
0.000662201
0.105647
0.499001
0.508796
-2.71735e-19
-4.00391e-19
-1.46348e-18
-5.4008e-18
-1.71885e-17
-4.81736e-17
-1.18438e-16
-2.70424e-16
-5.95744e-16
-1.27974e-15
-2.67229e-15
-5.40091e-15
-1.05738e-14
-2.03485e-14
-4.06872e-14
-9.58034e-14
-2.9276e-13
-1.05971e-12
-3.88084e-12
-1.31985e-11
-4.04807e-11
-1.11557e-10
-2.78358e-10
-6.3399e-10
-1.32197e-09
-2.5433e-09
-4.54402e-09
-7.56815e-09
-1.17272e-08
-1.69358e-08
-2.28975e-08
-2.90921e-08
-3.47508e-08
-3.90524e-08
-4.13087e-08
-4.11184e-08
-3.37955e-08
-3.6781e-11
1.66411e-08
6.58545e-07
1.58875e-05
0.000275486
0.0325038
0.40314
0.515696
-1.35124e-19
-2.07606e-19
-8.05522e-19
-3.0369e-18
-9.7326e-18
-2.73777e-17
-6.78318e-17
-1.58236e-16
-3.59642e-16
-7.97791e-16
-1.71244e-15
-3.53698e-15
-7.02877e-15
-1.35062e-14
-2.54203e-14
-4.84929e-14
-1.0112e-13
-2.53005e-13
-7.62794e-13
-2.49495e-12
-7.97894e-12
-2.36935e-11
-6.43933e-11
-1.60084e-10
-3.64269e-10
-7.6333e-10
-1.48218e-09
-2.67797e-09
-4.49977e-09
-7.04962e-09
-1.03507e-08
-1.42992e-08
-1.86159e-08
-2.28718e-08
-2.65774e-08
-2.93244e-08
-3.00326e-08
-8.86326e-09
-5.41577e-10
1.28096e-07
4.10007e-06
8.48023e-05
0.00272626
0.239984
0.515391
-6.28619e-20
-1.06055e-19
-4.37982e-19
-1.6801e-18
-5.41042e-18
-1.52719e-17
-3.8276e-17
-9.17513e-17
-2.15727e-16
-4.93282e-16
-1.08392e-15
-2.27818e-15
-4.58978e-15
-8.91414e-15
-1.68094e-14
-3.10893e-14
-5.75425e-14
-1.11143e-13
-2.39257e-13
-6.00788e-13
-1.69977e-12
-4.97784e-12
-1.41312e-11
-3.76572e-11
-9.28858e-11
-2.11795e-10
-4.47753e-10
-8.80382e-10
-1.60981e-09
-2.74542e-09
-4.39016e-09
-6.60867e-09
-9.38539e-09
-1.25981e-08
-1.60315e-08
-1.94249e-08
-2.23257e-08
-2.06505e-08
-1.70183e-11
1.5718e-08
9.24917e-07
2.53912e-05
0.000469364
0.0708017
0.459646
-2.84845e-20
-5.35515e-20
-2.33906e-19
-9.09256e-19
-2.94131e-18
-8.35529e-18
-2.12763e-17
-5.26135e-17
-1.27959e-16
-3.0034e-16
-6.71642e-16
-1.42936e-15
-2.91061e-15
-5.71418e-15
-1.08955e-14
-2.02989e-14
-3.71811e-14
-6.76739e-14
-1.25112e-13
-2.4446e-13
-5.28714e-13
-1.28302e-12
-3.35902e-12
-8.93472e-12
-2.30275e-11
-5.61303e-11
-1.28203e-10
-2.73609e-10
-5.44398e-10
-1.01166e-09
-1.76393e-09
-2.89589e-09
-4.4866e-09
-6.57291e-09
-9.13544e-09
-1.20951e-08
-1.52466e-08
-1.75431e-08
-5.24217e-09
-2.01685e-10
9.87299e-08
4.16595e-06
8.9675e-05
0.00358445
0.245118
-1.27174e-20
-2.675e-20
-1.22389e-19
-4.79997e-19
-1.55865e-18
-4.46872e-18
-1.16454e-17
-2.98052e-17
-7.46366e-17
-1.78706e-16
-4.04428e-16
-8.67625e-16
-1.78136e-15
-3.53564e-15
-6.83735e-15
-1.29455e-14
-2.40482e-14
-4.39132e-14
-7.91828e-14
-1.42581e-13
-2.62369e-13
-5.10916e-13
-1.08603e-12
-2.52097e-12
-6.16324e-12
-1.51556e-11
-3.62261e-11
-8.25275e-11
-1.7717e-10
-3.57243e-10
-6.7769e-10
-1.21175e-09
-2.04535e-09
-3.26449e-09
-4.94203e-09
-7.12164e-09
-9.76852e-09
-1.25598e-08
-1.19349e-08
-3.13748e-11
8.25961e-09
4.80127e-07
1.43906e-05
0.000269977
0.0380076
-5.62511e-21
-1.32162e-20
-6.26791e-20
-2.47004e-19
-8.05188e-19
-2.33746e-18
-6.26349e-18
-1.66068e-17
-4.26434e-17
-1.03285e-16
-2.35117e-16
-5.06877e-16
-1.04833e-15
-2.10617e-15
-4.14455e-15
-8.01286e-15
-1.5213e-14
-2.83027e-14
-5.15508e-14
-9.20986e-14
-1.62466e-13
-2.87163e-13
-5.21534e-13
-1.00433e-12
-2.09306e-12
-4.68179e-12
-1.08763e-11
-2.52732e-11
-5.70343e-11
-1.22968e-10
-2.51663e-10
-4.87592e-10
-8.93483e-10
-1.54895e-09
-2.54611e-09
-3.97908e-09
-5.91129e-09
-8.28096e-09
-1.01672e-08
-2.86759e-09
-3.44826e-11
3.82692e-08
1.50277e-06
3.31183e-05
0.000505655
-2.46984e-21
-6.46514e-21
-3.1455e-20
-1.24103e-19
-4.06523e-19
-1.1994e-18
-3.31486e-18
-9.06498e-18
-2.36902e-17
-5.77678e-17
-1.31513e-16
-2.841e-16
-5.92091e-16
-1.20715e-15
-2.42595e-15
-4.80707e-15
-9.35604e-15
-1.78013e-14
-3.29959e-14
-5.95494e-14
-1.04869e-13
-1.81212e-13
-3.10637e-13
-5.38344e-13
-9.6896e-13
-1.86052e-12
-3.85025e-12
-8.44778e-12
-1.89926e-11
-4.23552e-11
-9.17004e-11
-1.90295e-10
-3.7585e-10
-7.04253e-10
-1.25197e-09
-2.11418e-09
-3.3889e-09
-5.12738e-09
-7.11772e-09
-6.67325e-09
-4.13785e-25
3.90134e-09
1.61426e-07
3.52718e-06
4.90001e-05
-1.07786e-21
-3.14071e-21
-1.55162e-20
-6.11119e-20
-2.016e-19
-6.06794e-19
-1.73002e-18
-4.83904e-18
-1.27444e-17
-3.10879e-17
-7.0709e-17
-1.52755e-16
-3.21061e-16
-6.66184e-16
-1.3714e-15
-2.78966e-15
-5.56443e-15
-1.08095e-14
-2.03632e-14
-3.71682e-14
-6.58593e-14
-1.13703e-13
-1.92354e-13
-3.21812e-13
-5.40532e-13
-9.32286e-13
-1.69601e-12
-3.31644e-12
-6.94469e-12
-1.51793e-11
-3.35406e-11
-7.29329e-11
-1.53246e-10
-3.07871e-10
-5.88707e-10
-1.06979e-09
-1.84374e-09
-2.99887e-09
-4.5382e-09
-5.73141e-09
-1.90706e-09
-4.88724e-12
1.43442e-08
3.41552e-07
5.27894e-06
-4.68392e-22
-1.51918e-21
-7.54364e-21
-2.96165e-20
-9.87533e-20
-3.04178e-19
-8.91554e-19
-2.5226e-18
-6.62796e-18
-1.60725e-17
-3.64431e-17
-7.9004e-17
-1.67614e-16
-3.54644e-16
-7.48472e-16
-1.56017e-15
-3.17658e-15
-6.26552e-15
-1.19292e-14
-2.1921e-14
-3.89933e-14
-6.74374e-14
-1.13941e-13
-1.89158e-13
-3.11058e-13
-5.13088e-13
-8.65352e-13
-1.52971e-12
-2.89609e-12
-5.89778e-12
-1.26875e-11
-2.79468e-11
-6.11524e-11
-1.30043e-10
-2.65379e-10
-5.16275e-10
-9.53105e-10
-1.6607e-09
-2.70508e-09
-3.93403e-09
-3.68423e-09
-6.43293e-12
1.05797e-09
3.09058e-08
4.93791e-07
-2.02939e-22
-7.29188e-22
-3.60648e-21
-1.41306e-20
-4.78624e-20
-1.51098e-19
-4.52244e-19
-1.28008e-18
-3.32808e-18
-7.9866e-18
-1.80373e-17
-3.93318e-17
-8.47536e-17
-1.82697e-16
-3.94043e-16
-8.36441e-16
-1.72434e-15
-3.4253e-15
-6.53804e-15
-1.2011e-14
-2.13257e-14
-3.68126e-14
-6.21398e-14
-1.03106e-13
-1.69076e-13
-2.75954e-13
-4.53121e-13
-7.61042e-13
-1.33707e-12
-2.51119e-12
-5.08243e-12
-1.09253e-11
-2.41929e-11
-5.3453e-11
-1.15104e-10
-2.38085e-10
-4.68735e-10
-8.7198e-10
-1.51991e-09
-2.4252e-09
-3.10148e-09
-1.40279e-09
-4.75801e-12
2.44427e-09
4.37247e-08
-8.73252e-23
-3.4242e-22
-1.67809e-21
-6.59227e-21
-2.27995e-20
-7.36919e-20
-2.23314e-19
-6.27121e-19
-1.60673e-18
-3.81218e-18
-8.59591e-18
-1.89365e-17
-4.1586e-17
-9.15097e-17
-1.99833e-16
-4.27245e-16
-8.81627e-16
-1.74511e-15
-3.30823e-15
-6.02432e-15
-1.06016e-14
-1.81605e-14
-3.05106e-14
-5.05842e-14
-8.31614e-14
-1.36199e-13
-2.23541e-13
-3.71034e-13
-6.31841e-13
-1.12655e-12
-2.14674e-12
-4.40699e-12
-9.60731e-12
-2.15663e-11
-4.82791e-11
-1.05214e-10
-2.19683e-10
-4.34708e-10
-8.07712e-10
-1.38825e-09
-2.07383e-09
-2.02905e-09
-3.26926e-12
1.99542e-10
3.89254e-09
-3.68259e-23
-1.54162e-22
-7.49278e-22
-2.97191e-21
-1.05271e-20
-3.46781e-20
-1.05444e-19
-2.92408e-19
-7.3851e-19
-1.73939e-18
-3.94191e-18
-8.8315e-18
-1.98162e-17
-4.43414e-17
-9.73788e-17
-2.06532e-16
-4.20879e-16
-8.2007e-16
-1.52773e-15
-2.73162e-15
-4.72532e-15
-7.97744e-15
-1.32652e-14
-2.19034e-14
-3.61144e-14
-5.96768e-14
-9.9156e-14
-1.66391e-13
-2.84029e-13
-4.99394e-13
-9.21274e-13
-1.81627e-12
-3.84622e-12
-8.60256e-12
-1.96942e-11
-4.47198e-11
-9.83482e-11
-2.06116e-10
-4.06859e-10
-7.4696e-10
-1.2341e-09
-1.60818e-09
-1.01088e-09
-4.63709e-12
3.68464e-10
-1.49388e-23
-6.55759e-23
-3.17891e-22
-1.28084e-21
-4.64104e-21
-1.54599e-20
-4.67742e-20
-1.27802e-19
-3.19183e-19
-7.51809e-19
-1.72709e-18
-3.95771e-18
-9.07248e-18
-2.05189e-17
-4.4922e-17
-9.38205e-17
-1.86132e-16
-3.5236e-16
-6.37152e-16
-1.10672e-15
-1.86421e-15
-3.07807e-15
-5.03326e-15
-8.23793e-15
-1.35983e-14
-2.2723e-14
-3.84946e-14
-6.61935e-14
-1.1577e-13
-2.06963e-13
-3.82313e-13
-7.42138e-13
-1.53705e-12
-3.39684e-12
-7.84696e-12
-1.83537e-11
-4.21818e-11
-9.31632e-11
-1.94691e-10
-3.79978e-10
-6.78366e-10
-1.03403e-09
-1.09734e-09
-3.64045e-10
-1.92706e-12
-5.74982e-24
-2.61397e-23
-1.27208e-22
-5.22446e-22
-1.92769e-21
-6.44019e-21
-1.9276e-20
-5.18974e-20
-1.287e-19
-3.05064e-19
-7.14095e-19
-1.67455e-18
-3.90272e-18
-8.85837e-18
-1.92053e-17
-3.92962e-17
-7.55058e-17
-1.37144e-16
-2.3774e-16
-3.96432e-16
-6.43298e-16
-1.02911e-15
-1.64273e-15
-2.65017e-15
-4.36766e-15
-7.38936e-15
-1.28336e-14
-2.28407e-14
-4.15724e-14
-7.72806e-14
-1.4714e-13
-2.89814e-13
-5.99681e-13
-1.31766e-12
-3.05534e-12
-7.29598e-12
-1.73895e-11
-4.02586e-11
-8.87483e-11
-1.83496e-10
-3.50098e-10
-5.92722e-10
-7.98971e-10
-6.65273e-10
-6.48052e-12
-2.07518e-24
-9.69152e-24
-4.76029e-23
-1.9934e-22
-7.44294e-22
-2.47662e-21
-7.30983e-21
-1.94244e-20
-4.80485e-20
-1.15195e-19
-2.75281e-19
-6.58045e-19
-1.54622e-18
-3.48872e-18
-7.42806e-18
-1.47938e-17
-2.74894e-17
-4.77179e-17
-7.86469e-17
-1.24612e-16
-1.92418e-16
-2.94432e-16
-4.54325e-16
-7.17776e-16
-1.17724e-15
-2.01873e-15
-3.61507e-15
-6.72396e-15
-1.29096e-14
-2.541e-14
-5.10402e-14
-1.04841e-13
-2.2251e-13
-4.946e-13
-1.157e-12
-2.81166e-12
-6.91064e-12
-1.66884e-11
-3.8671e-11
-8.44652e-11
-1.71232e-10
-3.1424e-10
-4.90314e-10
-5.70416e-10
-3.66129e-10
-6.94312e-25
-3.31404e-24
-1.64882e-23
-7.02288e-23
-2.63578e-22
-8.68978e-22
-2.52604e-21
-6.64074e-21
-1.645e-20
-3.99964e-20
-9.73979e-20
-2.35719e-19
-5.53447e-19
-1.23127e-18
-2.55769e-18
-4.93139e-18
-8.81922e-18
-1.46607e-17
-2.27856e-17
-3.3971e-17
-4.93553e-17
-7.13501e-17
-1.05055e-16
-1.61103e-16
-2.61848e-16
-4.55721e-16
-8.47286e-16
-1.66519e-15
-3.41974e-15
-7.24804e-15
-1.56706e-14
-3.43676e-14
-7.67418e-14
-1.76467e-13
-4.2216e-13
-1.04823e-12
-2.65239e-12
-6.65944e-12
-1.61744e-11
-3.72366e-11
-7.99516e-11
-1.57142e-10
-2.72064e-10
-3.83644e-10
-3.85517e-10
-2.12762e-25
-1.03421e-24
-5.21965e-24
-2.25242e-23
-8.44601e-23
-2.74836e-22
-7.86446e-22
-2.0493e-21
-5.09549e-21
-1.25628e-20
-3.10329e-20
-7.54613e-20
-1.75678e-19
-3.82936e-19
-7.72381e-19
-1.43635e-18
-2.46427e-18
-3.91073e-18
-5.76358e-18
-7.98649e-18
-1.07832e-17
-1.45162e-17
-2.00911e-17
-2.95288e-17
-4.72643e-17
-8.35854e-17
-1.62721e-16
-3.42452e-16
-7.64183e-16
-1.77472e-15
-4.20915e-15
-1.00642e-14
-2.41918e-14
-5.8881e-14
-1.46745e-13
-3.76273e-13
-9.83564e-13
-2.56651e-12
-6.52415e-12
-1.58102e-11
-3.58958e-11
-7.51278e-11
-1.413e-10
-2.27318e-10
-2.89176e-10
-5.88851e-26
-2.9067e-25
-1.48758e-24
-6.47239e-24
-2.41236e-23
-7.72594e-23
-2.17472e-22
-5.61908e-22
-1.40194e-21
-3.49486e-21
-8.70709e-21
-2.11335e-20
-4.85141e-20
-1.03193e-19
-2.01519e-19
-3.6063e-19
-5.92268e-19
-8.95266e-19
-1.25042e-18
-1.6214e-18
)
;

boundaryField
{
    leftWall
    {
        type            zeroGradient;
    }
    rightWall
    {
        type            zeroGradient;
    }
    lowerWall
    {
        type            zeroGradient;
    }
    atmosphere
    {
        type            inletOutlet;
        inletValue      nonuniform 0();
        value           nonuniform 0();
    }
    defaultFaces
    {
        type            empty;
    }
    procBoundary0to1
    {
        type            processor;
        value           nonuniform List<scalar> 
44
(
0.999423
0.997034
0.996241
1
1
1
1
1
1
1
1
1
1
0.999999
0.999991
0.999848
0.995273
0.933649
0.783184
0.59015
0.59015
1.46807e-06
1.02399e-06
6.63878e-07
5.80761e-07
0.000178858
0.128643
0.304651
0.480275
0.503009
0.503422
0.403636
0.0898269
0.000626359
6.56331e-05
5.84694e-06
5.60368e-07
4.93634e-08
4.98344e-09
4.5933e-10
-9.71928e-13
-1.99581e-13
-1.88773e-10
-2.54372e-10
)
;
    }
    procBoundary0to2
    {
        type            processor;
        value           nonuniform List<scalar> 
46
(
-2.00314e-18
-2.47041e-18
-3.15412e-18
-4.36416e-18
-6.81135e-18
-1.22424e-17
-2.52105e-17
-5.77538e-17
-1.42638e-16
-3.69964e-16
-9.81339e-16
-2.60911e-15
-6.89299e-15
-1.81461e-14
-4.80728e-14
-1.29237e-13
-3.51984e-13
-9.57814e-13
-2.55048e-12
-6.50643e-12
-1.56181e-11
-3.47347e-11
-7.02442e-11
-1.25085e-10
-1.86455e-10
-1.44724e-26
-7.23359e-26
-3.74733e-25
-1.63596e-24
-6.03299e-24
-1.89618e-23
-5.24026e-23
-1.33973e-22
-3.34304e-22
-8.38425e-22
-2.09469e-21
-5.05172e-21
-1.14024e-20
-2.36296e-20
-4.46319e-20
-7.6798e-20
-1.20636e-19
-1.73493e-19
-2.29291e-19
-2.00314e-18
-2.79715e-19
)
;
    }
}


// ************************************************************************* //
