/*--------------------------------*- C++ -*----------------------------------*\
| =========                 |                                                 |
| \\      /  F ield         | OpenFOAM: The Open Source CFD Toolbox           |
|  \\    /   O peration     | Version:  5.0                                   |
|   \\  /    A nd           | Web:      www.OpenFOAM.org                      |
|    \\/     M anipulation  |                                                 |
\*---------------------------------------------------------------------------*/
FoamFile
{
    version     2.0;
    format      ascii;
    class       volScalarField;
    location    "0.8";
    object      epsilon;
}
// * * * * * * * * * * * * * * * * * * * * * * * * * * * * * * * * * * * * * //

dimensions      [0 2 -3 0 0 0 0];

internalField   nonuniform List<scalar> 
1935
(
0.0157344
0.0426006
0.0719232
0.102458
0.132166
0.159688
0.184135
0.206242
0.227157
0.247468
0.267394
0.287037
0.306448
0.325641
0.344585
0.363218
0.38146
0.399222
0.416398
0.432868
0.448492
0.463123
0.476602
0.488767
0.499449
0.508486
0.515722
0.521024
0.524291
0.525471
0.524587
0.52177
0.517357
0.512129
0.505929
0.498069
0.487814
0.47464
0.460062
0.443199
0.413879
0.368737
0.309093
0.236698
0.0299986
0.034074
0.0466377
0.0595163
0.0722276
0.0844272
0.0956772
0.106098
0.116027
0.125674
0.135124
0.144389
0.153453
0.162291
0.170879
0.179197
0.187222
0.194933
0.202303
0.209297
0.215874
0.221979
0.227551
0.232518
0.236803
0.240325
0.243009
0.244783
0.245597
0.245422
0.244263
0.242162
0.239214
0.235763
0.23187
0.227548
0.222793
0.217577
0.21176
0.204697
0.194817
0.180977
0.163168
0.142906
0.0419759
0.0335931
0.0419123
0.0516633
0.0615408
0.0710293
0.0798758
0.0881239
0.0959303
0.103435
0.11072
0.117815
0.124723
0.131434
0.137932
0.144205
0.150242
0.156031
0.161556
0.1668
0.171736
0.17633
0.180543
0.184327
0.187631
0.190403
0.192594
0.194165
0.195093
0.195376
0.19504
0.194143
0.192827
0.191223
0.189446
0.187589
0.185707
0.183766
0.181566
0.178763
0.174922
0.169613
0.162967
0.156544
0.0494841
0.034807
0.0411163
0.0495928
0.058374
0.066833
0.0747417
0.0821119
0.0890508
0.0956712
0.102053
0.10824
0.114249
0.120079
0.125723
0.131175
0.136426
0.141467
0.146285
0.150867
0.155193
0.159239
0.162974
0.166365
0.169377
0.171976
0.174135
0.175836
0.177082
0.177894
0.178323
0.178456
0.17842
0.178333
0.178318
0.178482
0.178889
0.17952
0.180239
0.180873
0.181307
0.181473
0.181717
0.183844
0.0528597
0.0365564
0.0419271
0.0497739
0.0579989
0.0659164
0.0733035
0.0801655
0.0865976
0.0927059
0.0985724
0.104248
0.109758
0.115109
0.120298
0.12532
0.130167
0.134829
0.139296
0.143554
0.147587
0.151376
0.154898
0.15813
0.161049
0.163637
0.165885
0.167796
0.169393
0.170722
0.171857
0.17291
0.174006
0.175277
0.176861
0.178877
0.181411
0.184479
0.188026
0.192001
0.196457
0.201593
0.208082
0.218316
0.0544734
0.0387901
0.0438067
0.0513417
0.0592273
0.0667695
0.073769
0.0802461
0.086302
0.0920451
0.0975599
0.102901
0.108097
0.113156
0.118076
0.12285
0.127471
0.131926
0.136203
0.140289
0.144169
0.147829
0.151251
0.154422
0.15733
0.159972
0.162354
0.1645
0.166454
0.168283
0.170087
0.171996
0.174151
0.176706
0.179822
0.183646
0.188299
0.193853
0.200345
0.207843
0.216572
0.227057
0.240591
0.260875
0.05688
0.0417817
0.0466746
0.0540354
0.0616335
0.0688207
0.0754492
0.0815696
0.0872967
0.0927442
0.0979964
0.103106
0.108097
0.112974
0.117735
0.122371
0.12687
0.131216
0.135394
0.139392
0.143195
0.146792
0.150173
0.153331
0.156266
0.158989
0.161524
0.163911
0.166216
0.168529
0.170974
0.173703
0.176879
0.18069
0.185329
0.190991
0.197848
0.206052
0.215742
0.227132
0.240673
0.257379
0.27967
0.314
0.0597768
0.0457165
0.0506878
0.0577783
0.0649967
0.0717555
0.077972
0.0837279
0.0891492
0.09435
0.0994086
0.104365
0.109232
0.114009
0.118691
0.123268
0.127719
0.132022
0.136162
0.140124
0.143897
0.14747
0.150839
0.154006
0.156985
0.159798
0.162486
0.165108
0.167751
0.170529
0.173593
0.177116
0.181299
0.186366
0.192564
0.200147
0.209367
0.220473
0.233734
0.249534
0.268614
0.292644
0.325813
0.379827
0.0650797
0.0514724
0.0561278
0.0625895
0.0691858
0.0753762
0.0811067
0.0864753
0.091608
0.0966115
0.101548
0.106429
0.111242
0.11599
0.120668
0.125254
0.129718
0.134031
0.138176
0.14214
0.14591
0.149479
0.152851
0.156034
0.159055
0.161952
0.164781
0.167622
0.170582
0.173802
0.177461
0.181764
0.186951
0.193301
0.201125
0.210761
0.222566
0.236915
0.254228
0.275079
0.30051
0.332895
0.378567
0.457357
0.0791773
0.0604659
0.0632314
0.0684656
0.0741644
0.0796407
0.0848104
0.08977
0.0946305
0.0994846
0.104368
0.109229
0.114033
0.118807
0.123548
0.128213
0.132742
0.137107
0.141296
0.14529
0.149073
0.152647
0.15602
0.159212
0.16226
0.16522
0.168165
0.171196
0.174443
0.178077
0.182309
0.187379
0.193582
0.201261
0.210813
0.222683
0.23736
0.255377
0.277328
0.303972
0.336585
0.377995
0.435998
0.537845
0.109599
0.072819
0.07167
0.0752175
0.0798416
0.0845047
0.0890778
0.0936456
0.0982876
0.103086
0.108028
0.11291
0.117717
0.122553
0.127417
0.132211
0.136829
0.141272
0.145534
0.149578
0.153381
0.156955
0.160317
0.163493
0.166539
0.169527
0.172549
0.17573
0.179227
0.183243
0.188026
0.193866
0.201119
0.210212
0.221646
0.236004
0.253941
0.276179
0.303505
0.33684
0.377536
0.428347
0.496343
0.603102
0.13571
0.0861516
0.079786
0.0811289
0.0847741
0.0890467
0.0934664
0.0979636
0.102624
0.107608
0.11284
0.117711
0.122487
0.127438
0.13252
0.137495
0.142182
0.146701
0.15105
0.155138
0.158942
0.162495
0.165815
0.168933
0.171926
0.174888
0.17793
0.181204
0.184902
0.189263
0.194579
0.201202
0.209567
0.220203
0.233746
0.250946
0.272665
0.299853
0.333506
0.374652
0.424537
0.485398
0.562624
0.670815
0.164941
0.0961026
0.0865974
0.0859235
0.0882171
0.0918221
0.0960765
0.100729
0.105805
0.111438
0.117414
0.123076
0.128313
0.133638
0.139169
0.144394
0.149041
0.153619
0.158079
0.162169
0.165914
0.169395
0.172614
0.175599
0.178463
0.18132
0.184299
0.187588
0.19142
0.196079
0.20191
0.209343
0.218913
0.231276
0.247232
0.267747
0.293933
0.327011
0.368188
0.41851
0.478897
0.550806
0.637948
0.750291
0.187397
0.10457
0.092537
0.0905451
0.0917657
0.0944678
0.098046
0.102303
0.107267
0.113026
0.119384
0.126077
0.132573
0.139154
0.145983
0.152272
0.157474
0.162279
0.166988
0.17096
0.174529
0.177871
0.180897
0.183625
0.186248
0.188891
0.191688
0.194889
0.198773
0.203674
0.210006
0.218301
0.229222
0.243582
0.262395
0.286901
0.318528
0.35882
0.409177
0.470469
0.542936
0.627169
0.72579
0.846974
0.206773
0.111376
0.0975087
0.0946713
0.0951965
0.0972241
0.10017
0.103875
0.108354
0.113618
0.119454
0.125733
0.132525
0.140032
0.148054
0.15601
0.163485
0.17016
0.17655
0.18145
0.184969
0.18819
0.190892
0.193162
0.195395
0.197688
0.200135
0.203109
0.206947
0.212024
0.218847
0.228094
0.240585
0.25734
0.279658
0.30915
0.347674
0.397184
0.459212
0.533994
0.620231
0.717846
0.829644
0.964914
0.218192
0.116347
0.101442
0.0981736
0.0983296
0.0999319
0.102387
0.105548
0.109427
0.114022
0.119185
0.124859
0.131251
0.138529
0.1464
0.154382
0.162593
0.171154
0.179639
0.187401
0.193404
0.198448
0.202236
0.204285
0.206002
0.207811
0.209641
0.212214
0.215906
0.221075
0.228387
0.238723
0.253103
0.272819
0.299576
0.335534
0.383194
0.445134
0.522954
0.615187
0.716465
0.827089
0.952736
1.10707
0.224755
0.119803
0.104394
0.100943
0.100938
0.102318
0.104459
0.107202
0.110551
0.114517
0.119026
0.124048
0.129754
0.136297
0.143495
0.15104
0.159094
0.167797
0.176609
0.185118
0.193256
0.200946
0.207543
0.212296
0.21559
0.218439
0.220079
0.222078
0.225563
0.23071
0.238506
0.250137
0.26685
0.290311
0.322812
0.367381
0.42761
0.507279
0.608307
0.725283
0.840862
0.960128
1.09745
1.27365
0.228153
0.122194
0.106562
0.103021
0.102934
0.104206
0.106174
0.108645
0.111602
0.115064
0.119005
0.123419
0.128421
0.134138
0.140506
0.147355
0.154769
0.162846
0.171256
0.179745
0.188363
0.19682
0.204504
0.21136
0.217541
0.22275
0.226774
0.230074
0.234595
0.240425
0.248892
0.26214
0.2818
0.310055
0.350056
0.406211
0.484066
0.590029
0.728166
0.885957
1.00705
1.12127
1.26341
1.46251
0.230265
0.124042
0.108214
0.104524
0.104346
0.105549
0.107423
0.109734
0.112434
0.115533
0.119031
0.122937
0.127328
0.132301
0.137857
0.143924
0.150536
0.157755
0.165426
0.173387
0.181645
0.189982
0.198013
0.205767
0.21322
0.219899
0.226011
0.232244
0.239145
0.247184
0.257857
0.273788
0.297434
0.331868
0.381689
0.453465
0.555909
0.700923
0.90143
1.14099
1.22968
1.30746
1.44331
1.66721
0.23237
0.125773
0.109504
0.105571
0.105254
0.106377
0.108186
0.110404
0.112948
0.115808
0.118989
0.122507
0.126414
0.130782
0.135639
0.140969
0.14679
0.153143
0.159967
0.167171
0.174739
0.182553
0.190404
0.198294
0.206183
0.213822
0.221488
0.229759
0.238952
0.249848
0.264315
0.28483
0.3141
0.356285
0.417458
0.506047
0.632496
0.809801
1.03691
1.25142
1.44963
1.48911
1.62131
1.87702
0.233806
0.12727
0.110511
0.106262
0.105748
0.106755
0.108494
0.110649
0.1131
0.115814
0.118786
0.12203
0.125581
0.129491
0.133794
0.1385
0.143627
0.149205
0.15522
0.161633
0.168431
0.175566
0.182948
0.190588
0.198499
0.206643
0.21531
0.225006
0.236191
0.249889
0.268113
0.29334
0.328589
0.378389
0.448818
0.546733
0.677165
0.841546
1.02778
1.2262
1.47732
1.59498
1.78152
2.08231
2.50743
0.235031
0.128595
0.111307
0.10668
0.105914
0.106763
0.108408
0.110501
0.112891
0.115518
0.118363
0.121428
0.124736
0.128321
0.132213
0.136431
0.140996
0.145933
0.15125
0.156941
0.163011
0.169456
0.176265
0.183483
0.191188
0.199489
0.208711
0.219374
0.232127
0.248138
0.269374
0.298469
0.338622
0.394017
0.469794
0.570505
0.697803
0.85036
1.02938
1.25591
1.52007
1.70325
1.93705
2.279
2.74598
0.23651
0.129849
0.111956
0.106895
0.105825
0.106475
0.107997
0.110016
0.112353
0.114925
0.117696
0.120654
0.123808
0.127177
0.130783
0.134646
0.138786
0.143225
0.147982
0.15307
0.158511
0.164331
0.170571
0.177314
0.184694
0.192917
0.202355
0.213576
0.227366
0.244968
0.268277
0.299826
0.342983
0.401579
0.479703
0.580732
0.706204
0.858748
1.05317
1.32173
1.61823
1.83436
2.09013
2.46064
2.96085
0.23856
0.131118
0.112507
0.106956
0.105543
0.105958
0.107327
0.109252
0.111532
0.114062
0.116789
0.119688
0.122753
0.12599
0.129413
0.133036
0.136875
0.140951
0.145285
0.149901
0.154833
0.16013
0.165862
0.172143
0.179151
0.18715
0.196557
0.207981
0.222281
0.240723
0.265109
0.297828
0.34198
0.401536
0.479919
0.580524
0.706887
0.867238
1.08489
1.39328
1.73587
1.97362
2.2322
2.61692
3.13923
0.241376
0.132446
0.112987
0.106897
0.105111
0.105264
0.106456
0.108268
0.110479
0.112967
0.115664
0.118532
0.121553
0.12472
0.128036
0.131511
0.135154
0.138982
0.143017
0.147288
0.151835
0.156718
0.162027
0.167898
0.174534
0.182234
0.19144
0.202784
0.217152
0.235785
0.260386
0.293179
0.337012
0.395513
0.47274
0.572431
0.700691
0.870514
1.10936
1.44937
1.84001
2.09777
2.35304
2.73794
3.26591
0.245037
0.133836
0.113402
0.106735
0.104556
0.104431
0.10543
0.107112
0.109241
0.111682
0.114353
0.117205
0.120207
0.123344
0.126611
0.130006
0.133536
0.137212
0.141054
0.145091
0.149365
0.153943
0.158922
0.164451
0.170746
0.178121
0.187025
0.198094
0.212199
0.230536
0.254696
0.286747
0.329318
0.385749
0.460303
0.558206
0.687201
0.863205
1.11485
1.47373
1.90923
2.2019
2.45009
2.82001
3.33582
0.249529
0.135258
0.113743
0.106476
0.103896
0.103487
0.104283
0.105824
0.107861
0.110247
0.112889
0.115729
0.118727
0.12186
0.125114
0.12848
0.13196
0.135559
0.139293
0.143188
0.147287
0.151658
0.1564
0.161663
0.167668
0.174728
0.183287
0.193963
0.207594
0.225308
0.248589
0.279355
0.320053
0.373838
0.4449
0.539305
0.666567
0.843164
1.097
1.45949
1.92668
2.28757
2.52823
2.86626
3.35487
0.254762
0.136662
0.113992
0.106117
0.10314
0.102449
0.10304
0.104435
0.106372
0.108695
0.111303
0.11413
0.117131
0.120274
0.123538
0.12691
0.130384
0.133962
0.137654
0.141484
0.145491
0.149739
0.154327
0.159403
0.165179
0.171961
0.180176
0.19041
0.203456
0.220366
0.242516
0.271681
0.310151
0.360926
0.428109
0.517782
0.63997
0.811699
1.05849
1.41106
1.87975
2.33751
2.59382
2.88449
3.32718
0.26052
0.13798
0.114128
0.105656
0.102294
0.10133
0.10172
0.102968
0.1048
0.107054
0.109623
0.112434
0.115438
0.118597
0.121886
0.125285
0.128785
0.132382
0.136083
0.139906
0.143887
0.148085
0.152596
0.157556
0.163172
0.16973
0.177634
0.187433
0.199864
0.2159
0.23681
0.264235
0.300311
0.347875
0.410868
0.495156
0.610158
0.771651
1.00462
1.33793
1.7916
2.31088
2.63366
2.88911
3.27286
0.266414
0.139157
0.114136
0.105091
0.101365
0.100141
0.100337
0.10144
0.103167
0.105348
0.107872
0.110664
0.113668
0.116846
0.120165
0.123605
0.127151
0.130795
0.134541
0.138402
0.14241
0.14662
0.151116
0.156031
0.161553
0.167951
0.1756
0.185008
0.196853
0.212029
0.2317
0.257375
0.291031
0.335317
0.393929
0.47232
0.578996
0.727606
0.939442
1.24375
1.66215
2.17992
2.63762
2.9031
3.21115
0.272173
0.140152
0.114006
0.104422
0.100358
0.0988917
0.0989045
0.0998659
0.101488
0.103595
0.106071
0.108839
0.111841
0.115035
0.118387
0.121874
0.125478
0.129189
0.133005
0.136938
0.141015
0.145283
0.149822
0.154751
0.160245
0.166553
0.174017
0.183103
0.194432
0.208819
0.227326
0.251332
0.282651
0.323715
0.377909
0.450149
0.54788
0.682604
0.871781
1.1398
1.51499
2.00362
2.54631
2.90522
3.15688
0.277615
0.140934
0.113732
0.103652
0.0992777
0.0975901
0.0974337
0.0982622
0.0997799
0.10181
0.104236
0.106976
0.109972
0.113179
0.116564
0.120101
0.123769
0.127558
0.131463
0.135492
0.139668
0.144034
0.148661
0.153659
0.159187
0.165472
0.172828
0.181677
0.192586
0.206293
0.223762
0.246246
0.275391
0.313399
0.363306
0.429441
0.518171
0.63901
0.806021
1.03895
1.36222
1.79786
2.32695
2.8307
3.13407
0.282597
0.141485
0.113315
0.102788
0.0981333
0.0962443
0.0959326
0.0966377
0.0980569
0.10001
0.102382
0.105091
0.108076
0.111294
0.114708
0.118294
0.122029
0.125902
0.129907
0.13405
0.138349
0.142843
0.147598
0.152711
0.158329
0.164658
0.171982
0.180688
0.191285
0.204444
0.221034
0.242186
0.269382
0.30459
0.350492
0.410834
0.490978
0.598692
0.745165
0.945993
1.22119
1.59171
2.06734
2.60135
3.06728
0.287005
0.141795
0.112761
0.101838
0.096934
0.0948639
0.0944105
0.0950013
0.0963277
0.098207
0.100523
0.103196
0.106167
0.10939
0.112831
0.116463
0.120266
0.124226
0.128338
0.132605
0.137044
0.141691
0.146603
0.151872
0.15763
0.164065
0.171436
0.180091
0.190493
0.203246
0.219134
0.239173
0.264686
0.297419
0.339713
0.394777
0.46708
0.562917
0.691123
0.86384
1.09688
1.40841
1.81312
2.30715
2.8278
0.290753
0.141863
0.11208
0.100813
0.0956903
0.0934587
0.0928767
0.0933616
0.0946007
0.0964093
0.09867
0.101304
0.104256
0.107481
0.110944
0.114619
0.118487
0.122535
0.126756
0.131155
0.135747
0.140563
0.145659
0.151117
0.157059
0.163657
0.171147
0.179844
0.190168
0.202663
0.218035
0.237193
0.261317
0.291943
0.331107
0.381536
0.446942
0.532406
0.644886
0.793768
0.991269
1.2521
1.59102
2.01538
2.50931
0.293792
0.141698
0.111283
0.0997241
0.0944128
0.0920383
0.09134
0.0917273
0.0928842
0.0946247
0.0968316
0.0994264
0.102354
0.105575
0.109056
0.112771
0.116701
0.120834
0.125166
0.129701
0.134453
0.139452
0.144751
0.150427
0.156592
0.163404
0.17108
0.179907
0.190266
0.202649
0.217692
0.23621
0.25925
0.288166
0.32472
0.371231
0.430777
0.507469
0.606788
0.735977
0.904369
1.12338
1.40556
1.7612
2.19041
0.2961
0.141316
0.110385
0.098584
0.0931113
0.0906114
0.0898085
0.090106
0.0911855
0.0928606
0.0950145
0.0975697
0.100472
0.103684
0.107177
0.110926
0.114914
0.11913
0.123572
0.128243
0.13316
0.138353
0.143871
0.149787
0.156208
0.16328
0.171203
0.180243
0.190745
0.203157
0.218056
0.236171
0.258438
0.286049
0.320533
0.363868
0.418619
0.488129
0.576742
0.690067
0.835211
1.02085
1.25685
1.55269
1.91373
0.297689
0.140734
0.109399
0.097403
0.0917948
0.0891858
0.0882892
0.0885042
0.089511
0.0911233
0.093225
0.0957399
0.0986159
0.101816
0.105315
0.109093
0.113134
0.11743
0.121978
0.126786
0.131871
0.137263
0.143012
0.149187
0.155892
0.163263
0.171489
0.180816
0.191562
0.204139
0.21907
0.237016
0.258815
0.285523
0.318477
0.359376
0.410378
0.474228
0.554411
0.655315
0.782388
0.942206
1.14228
1.39029
1.69227
0.298589
0.139976
0.108339
0.0961904
0.0904707
0.0877679
0.0867879
0.0869274
0.0878661
0.0894182
0.0914686
0.0939427
0.0967903
0.0999768
0.103478
0.107278
0.111368
0.115738
0.120389
0.125332
0.130585
0.13618
0.142168
0.148618
0.155629
0.163335
0.171914
0.181595
0.192679
0.205546
0.220677
0.238676
0.260301
0.286498
0.318449
0.357628
0.405878
0.465491
0.53931
0.630833
0.74431
0.884784
1.05799
1.26996
1.52602
0.298848
0.13906
0.107215
0.0949536
0.0891446
0.0863625
0.0853091
0.08538
0.0862551
0.0877495
0.0897495
0.0921824
0.095
0.09817
0.101671
0.10549
0.109619
0.114059
0.118809
0.123883
0.129303
0.135103
0.141336
0.148072
0.155409
0.163479
0.172452
0.18255
0.194057
0.207329
0.222816
0.241078
0.262809
0.288868
0.320315
0.358454
0.404886
0.461568
0.530874
0.615669
0.719359
0.845921
0.999848
1.18592
1.40868
0.29852
0.138005
0.106037
0.0936979
0.0878206
0.0849731
0.083856
0.0838651
0.0846811
0.0861204
0.0880712
0.0904626
0.0932487
0.0963997
0.099897
0.10373
0.107896
0.112397
0.117241
0.122442
0.128026
0.134031
0.140512
0.147542
0.155221
0.163679
0.173084
0.183652
0.195656
0.209439
0.225425
0.244143
0.266239
0.292508
0.32392
0.36165
0.407125
0.462057
0.528491
0.60885
0.705966
0.8231
0.963915
1.13235
1.33233
0.29766
0.136825
0.10481
0.0924269
0.0865013
0.083602
0.0824308
0.0823847
0.0831462
0.0845333
0.0864361
0.0887858
0.0915389
0.0946685
0.0981586
0.102002
0.106199
0.110756
0.115687
0.12101
0.126754
0.132962
0.139692
0.147022
0.155053
0.163918
0.173786
0.18487
0.197438
0.211823
0.228437
0.247785
0.270483
0.297281
0.329084
0.366981
0.412274
0.466509
0.531507
0.609392
0.70262
0.81399
0.946634
1.10396
1.28947
0.296322
0.135532
0.103539
0.0911432
0.0851887
0.0822508
0.0810348
0.0809403
0.0816518
0.0829895
0.0848456
0.0871536
0.0898726
0.0929782
0.0964578
0.100308
0.104531
0.109139
0.114149
0.119587
0.125486
0.131893
0.13887
0.146502
0.154893
0.16418
0.174535
0.186172
0.19936
0.214428
0.231781
0.251912
0.275421
0.30303
0.335604
0.374177
0.419972
0.474428
0.539221
0.616288
0.707846
0.816406
0.944775
1.09603
1.27344
0.294547
0.134135
0.102226
0.0898487
0.0838842
0.0809205
0.0796688
0.0795324
0.0801985
0.0814897
0.0833005
0.0855669
0.0882506
0.0913299
0.0947955
0.0986469
0.102892
0.107544
0.112627
0.118172
)
;

boundaryField
{
    leftWall
    {
        Cmu             0.09;
        kappa           0.41;
        E               9.8;
        type            epsilonWallFunction;
        value           nonuniform List<scalar> 
44
(
0.0157344
0.0299986
0.0419759
0.0494841
0.0528597
0.0544734
0.05688
0.0597768
0.0650797
0.0791773
0.109599
0.13571
0.164941
0.187397
0.206773
0.218192
0.224755
0.228153
0.230265
0.23237
0.233806
0.235031
0.23651
0.23856
0.241376
0.245037
0.249529
0.254762
0.26052
0.266414
0.272173
0.277615
0.282597
0.287005
0.290753
0.293792
0.2961
0.297689
0.298589
0.298848
0.29852
0.29766
0.296322
0.294547
)
;
    }
    rightWall
    {
        Cmu             0.09;
        kappa           0.41;
        E               9.8;
        type            epsilonWallFunction;
        value           nonuniform 0();
    }
    lowerWall
    {
        Cmu             0.09;
        kappa           0.41;
        E               9.8;
        type            epsilonWallFunction;
        value           nonuniform List<scalar> 
44
(
0.0157344
0.0426006
0.0719232
0.102458
0.132166
0.159688
0.184135
0.206242
0.227157
0.247468
0.267394
0.287037
0.306448
0.325641
0.344585
0.363218
0.38146
0.399222
0.416398
0.432868
0.448492
0.463123
0.476602
0.488767
0.499449
0.508486
0.515722
0.521024
0.524291
0.525471
0.524587
0.52177
0.517357
0.512129
0.505929
0.498069
0.487814
0.47464
0.460062
0.443199
0.413879
0.368737
0.309093
0.236698
)
;
    }
    atmosphere
    {
        type            inletOutlet;
        inletValue      nonuniform 0();
        value           nonuniform 0();
    }
    defaultFaces
    {
        type            empty;
    }
    procBoundary0to1
    {
        type            processor;
        value           nonuniform List<scalar> 
44
(
0.153652
0.124323
0.156111
0.195794
0.242994
0.302679
0.383032
0.495448
0.650308
0.824809
0.814408
0.836898
0.90155
1.00456
1.14266
1.31451
1.51824
1.74764
1.99656
2.25423
2.25423
3.08065
3.35211
3.59755
3.80581
3.94491
4.00621
4.00466
3.9266
3.80831
3.66588
3.52497
3.4121
3.34775
3.2602
3.00794
2.6707
2.33457
2.04927
1.82922
1.67157
1.56728
1.50653
1.48027
)
;
    }
    procBoundary0to2
    {
        type            processor;
        value           nonuniform List<scalar> 
46
(
0.12422
0.13082
0.138041
0.145973
0.154728
0.164446
0.175306
0.187526
0.201378
0.217194
0.235379
0.256424
0.280921
0.309581
0.343251
0.382935
0.429813
0.485262
0.550877
0.628482
0.720154
0.82823
0.95532
1.1043
1.27827
0.292374
0.132639
0.100876
0.0885457
0.0825893
0.0796122
0.0783336
0.0781616
0.0787866
0.080034
0.0818009
0.0840258
0.0866729
0.0897237
0.0931716
0.0970201
0.10128
0.105972
0.111121
0.12422
0.116765
)
;
    }
}


// ************************************************************************* //
