/*--------------------------------*- C++ -*----------------------------------*\
| =========                 |                                                 |
| \\      /  F ield         | OpenFOAM: The Open Source CFD Toolbox           |
|  \\    /   O peration     | Version:  5.0                                   |
|   \\  /    A nd           | Web:      www.OpenFOAM.org                      |
|    \\/     M anipulation  |                                                 |
\*---------------------------------------------------------------------------*/
FoamFile
{
    version     2.0;
    format      ascii;
    class       volScalarField;
    location    "0.8";
    object      nut;
}
// * * * * * * * * * * * * * * * * * * * * * * * * * * * * * * * * * * * * * //

dimensions      [0 2 -1 0 0 0 0];

internalField   nonuniform List<scalar> 
1935
(
2.90031e-05
3.39899e-05
4.04535e-05
4.54886e-05
4.94744e-05
5.2646e-05
5.52148e-05
5.73887e-05
5.93123e-05
6.10632e-05
6.26848e-05
6.42047e-05
6.56408e-05
6.70037e-05
6.82988e-05
6.95279e-05
7.06915e-05
7.17885e-05
7.28175e-05
7.37757e-05
7.46599e-05
7.54668e-05
7.61929e-05
7.68345e-05
7.73884e-05
7.78514e-05
7.82212e-05
7.84965e-05
7.86774e-05
7.87664e-05
7.87702e-05
7.87029e-05
7.86012e-05
7.85022e-05
7.83466e-05
7.80975e-05
7.77086e-05
7.71359e-05
7.64409e-05
7.54522e-05
7.35909e-05
7.06351e-05
6.64216e-05
6.05391e-05
4.39716e-05
0.000171607
0.000258347
0.000333055
0.000391729
0.000436012
0.00047251
0.000503538
0.000529549
0.000551525
0.000570618
0.000587791
0.000603704
0.000618736
0.000633066
0.000646748
0.00065977
0.000672096
0.000683675
0.000694456
0.000704396
0.000713471
0.000721687
0.000729073
0.000735689
0.000741622
0.000746988
0.000751932
0.000756628
0.000761296
0.000766225
0.000771863
0.000778854
0.000785626
0.000791892
0.000797073
0.000799982
0.000798748
0.000790765
0.000772385
0.000739613
0.000687477
0.000607417
0.000485803
4.92478e-05
0.00028861
0.000461005
0.000601103
0.000716663
0.000812447
0.000893962
0.000964161
0.00102484
0.00107775
0.00112466
0.00116714
0.00120635
0.00124305
0.00127766
0.00131036
0.00134118
0.00137008
0.00139696
0.00142172
0.00144431
0.0014647
0.00148293
0.00149912
0.00151345
0.00152617
0.00153761
0.00154814
0.00155819
0.00156824
0.00157886
0.00159084
0.00160342
0.00161551
0.0016258
0.00163209
0.00163105
0.00161815
0.0015875
0.00153153
0.00144102
0.00130503
0.00110951
0.000837731
5.21153e-05
0.000366161
0.000610201
0.000807861
0.000976406
0.0011217
0.00124796
0.0013582
0.00145494
0.00154058
0.0016174
0.00168736
0.00175194
0.00181216
0.00186862
0.00192161
0.0019712
0.00201736
0.00205998
0.00209895
0.00213422
0.00216578
0.00219375
0.00221832
0.00223983
0.00225869
0.00227539
0.00229051
0.00230465
0.00231844
0.00233249
0.00234732
0.00236142
0.00237349
0.00238118
0.00238088
0.0023675
0.00233439
0.00227311
0.00217322
0.00202235
0.00180649
0.00151015
0.00111768
5.3375e-05
0.000412025
0.000713821
0.000964632
0.00118356
0.00137614
0.00154569
0.00169521
0.00182768
0.00194606
0.00205304
0.00215087
0.00224127
0.0023254
0.00240401
0.00247746
0.00254586
0.00260919
0.00266734
0.00272023
0.00276781
0.00281015
0.00284743
0.00287996
0.00290819
0.00293269
0.00295411
0.00297315
0.00299053
0.0030069
0.00302278
0.00303808
0.00305103
0.00305972
0.00306094
0.00304998
0.0030205
0.00296433
0.00287138
0.00272938
0.00252399
0.00223914
0.00185765
0.00136308
5.38321e-05
0.000433102
0.000782785
0.00108363
0.00135083
0.00158849
0.00179936
0.00198661
0.0021537
0.00230404
0.00244067
0.00256605
0.00268202
0.00278988
0.00289045
0.00298413
0.00307107
0.00315123
0.00322455
0.00329097
0.00335049
0.00340324
0.00344949
0.00348967
0.00352434
0.00355421
0.00358004
0.00360264
0.00362275
0.00364098
0.00365771
0.00367204
0.00368222
0.00368569
0.00367852
0.00365521
0.00360857
0.00352956
0.00340709
0.00322782
0.00297591
0.00263291
0.00217811
0.00159124
5.4563e-05
0.000438251
0.000828274
0.00117649
0.00148954
0.00176956
0.00201913
0.00224188
0.00244184
0.00262282
0.0027881
0.00294023
0.00308112
0.00321215
0.00333418
0.00344763
0.00355263
0.00364919
0.00373724
0.00381678
0.00388787
0.00395071
0.00400566
0.00405327
0.00409422
0.00412932
0.00415942
0.00418539
0.00420795
0.00422761
0.00424446
0.00425711
0.00426362
0.00426087
0.00424439
0.00420817
0.00414453
0.00404406
0.00389536
0.00368462
0.00339492
0.00300504
0.00248858
0.00181677
5.54991e-05
0.000442766
0.000864807
0.00125428
0.0016098
0.00192843
0.00221323
0.0024686
0.00269915
0.00290902
0.00310158
0.00327931
0.00344413
0.00359749
0.00374028
0.00387287
0.00399535
0.00410773
0.00421004
0.00430227
0.00438455
0.00445718
0.00452063
0.00457552
0.00462265
0.00466292
0.00469725
0.00472653
0.00475143
0.00477228
0.00478888
0.00479946
0.00480175
0.0047922
0.00476591
0.00471654
0.0046363
0.0045159
0.00434429
0.00410801
0.00378987
0.00336635
0.00280386
0.00205825
5.70533e-05
0.000453126
0.000902814
0.00132783
0.00172028
0.0020724
0.00238807
0.00267256
0.00293101
0.00316772
0.00338591
0.0035878
0.0037753
0.00394999
0.0041127
0.00426366
0.00440291
0.00453051
0.00464653
0.00475101
0.00484413
0.00492628
0.00499802
0.00506009
0.00511337
0.00515883
0.00519745
0.00523009
0.00525734
0.00527934
0.00529554
0.00530385
0.00530158
0.00528477
0.00524816
0.00518528
0.00508853
0.00494923
0.00475741
0.004501
0.00416405
0.00372275
0.00313758
0.00234213
6.05634e-05
0.000474766
0.000949792
0.0014053
0.00182753
0.00220678
0.00254826
0.00285796
0.00314134
0.00340266
0.00364464
0.00386895
0.0040777
0.00427259
0.00445432
0.00462283
0.00477805
0.00492022
0.00504943
0.00516572
0.00526932
0.00536074
0.00544063
0.00550981
0.00556925
0.00562
0.00566304
0.00569921
0.00572898
0.00575224
0.00576808
0.00577402
0.00576692
0.00574235
0.00569475
0.00561761
0.00550382
0.0053458
0.00513536
0.00486293
0.0045157
0.0040733
0.0034973
0.00270342
6.68282e-05
0.000514801
0.00101182
0.00149185
0.00193534
0.00233497
0.00269721
0.00302839
0.00333398
0.00361795
0.00388213
0.00412713
0.00435581
0.00457
0.00477003
0.00495532
0.0051258
0.00528201
0.00542404
0.0055518
0.00566566
0.00576624
0.00585425
0.00593059
0.00599634
0.00605259
0.00610034
0.00614037
0.00617298
0.00619779
0.00621342
0.00621696
0.00620469
0.00617166
0.00611195
0.00601918
0.00588695
0.0057092
0.00548015
0.00519357
0.00484115
0.00440961
0.00387426
0.00318302
7.18883e-05
0.00054877
0.00108716
0.00158475
0.0020401
0.00245423
0.0028331
0.0031827
0.00350834
0.00381357
0.00409886
0.004363
0.00461058
0.00484344
0.00506127
0.00526266
0.0054477
0.00561756
0.00577215
0.00591109
0.00603505
0.00614477
0.00624097
0.00632464
0.00639695
0.00645905
0.00651195
0.00655633
0.00659232
0.00661922
0.00663491
0.0066361
0.00661833
0.00657597
0.00650273
0.0063924
0.00623958
0.00604013
0.00579109
0.00548974
0.00513221
0.00471187
0.00421722
0.00362565
7.67127e-05
0.000612792
0.00117071
0.00167401
0.0021337
0.00255623
0.00294746
0.00331278
0.00365687
0.00398219
0.0042879
0.00457277
0.00483938
0.00509078
0.00532637
0.00554335
0.00574233
0.00592562
0.00609264
0.00624235
0.00637623
0.00649513
0.00659959
0.00669075
0.00676995
0.00683833
0.00689689
0.00694625
0.00698628
0.00701586
0.00703213
0.00703115
0.00700756
0.00695492
0.00686653
0.0067365
0.00656068
0.00633721
0.00606612
0.00574791
0.0053817
0.00496467
0.00449325
0.003963
8.03087e-05
0.000662399
0.00124711
0.00176093
0.0022254
0.00265263
0.00305097
0.00342638
0.00378292
0.00412206
0.00444286
0.00474663
0.00503309
0.00530464
0.00555965
0.00579438
0.00600866
0.00620585
0.00638573
0.00654584
0.00668947
0.0068177
0.00693044
0.0070293
0.00711578
0.00719096
0.00725581
0.0073109
0.00735581
0.00738883
0.00740634
0.00740346
0.00737377
0.00730986
0.00720463
0.00705272
0.00685161
0.00660211
0.00630737
0.00597037
0.00559122
0.00516756
0.00469944
0.00419379
8.31738e-05
0.000698253
0.00131242
0.00184198
0.00231489
0.00274727
0.00315084
0.00353274
0.00389685
0.00424421
0.00457408
0.00488824
0.00518882
0.00547627
0.00574732
0.00600005
0.00623425
0.00645009
0.00664712
0.0068211
0.00697485
0.00711296
0.00723402
0.00734065
0.00743489
0.00751748
0.00758928
0.00765098
0.00770176
0.00773918
0.00775868
0.00775426
0.00771822
0.00764206
0.00751837
0.00734271
0.00711478
0.00683858
0.00652047
0.00616492
0.00577038
0.00533181
0.00485104
0.00434453
8.48574e-05
0.000725292
0.00136698
0.00191546
0.00239955
0.00283929
0.00324878
0.00363608
0.00400544
0.00435817
0.0046942
0.0050153
0.00532389
0.00561971
0.00589958
0.00616228
0.00640985
0.00664239
0.006856
0.0070498
0.00722153
0.00737573
0.00750978
0.00762516
0.00772786
0.00781855
0.00789791
0.00796722
0.00802509
0.00806794
0.00809026
0.00808475
0.00804214
0.00795278
0.00780923
0.00760867
0.00735386
0.00705275
0.00671504
0.00634519
0.00593568
0.00547589
0.00497082
0.00444739
8.58064e-05
0.000745929
0.00141219
0.00198023
0.00247744
0.00292733
0.00334448
0.0037377
0.00411185
0.00446894
0.00480964
0.00513552
0.00544854
0.00574853
0.00603323
0.00630199
0.00655671
0.00679711
0.00701972
0.0072249
0.00741345
0.00758497
0.00773752
0.00787073
0.00798873
0.00809293
0.0081822
0.00826035
0.00832682
0.00837618
0.00840221
0.00839615
0.00834674
0.00824331
0.00807891
0.00785335
0.00757385
0.00725339
0.00690533
0.0065312
0.00610855
0.0056202
0.00508107
0.00453262
8.63084e-05
0.000761673
0.00144935
0.00203517
0.00254808
0.00301067
0.00343758
0.00383804
0.00421757
0.00457896
0.00492359
0.00525296
0.00556868
0.00587088
0.00615824
0.00643035
0.00668835
0.00693204
0.00715944
0.00737124
0.00756852
0.00774997
0.00791488
0.00806501
0.00820185
0.00832387
0.00843143
0.00852525
0.00860528
0.00866433
0.00869555
0.00868958
0.00863313
0.00851499
0.00832951
0.0080805
0.00778157
0.00745254
0.00711186
0.00675263
0.00631075
0.00577909
0.00519527
0.00461788
8.66189e-05
0.000772653
0.00147679
0.00208151
0.00261197
0.00308935
0.00352797
0.00393728
0.00432328
0.00468949
0.00503793
0.00537028
0.00568797
0.00599145
0.00628016
0.00655387
0.00681319
0.00705811
0.00728781
0.0075029
0.00770432
0.0078916
0.00806502
0.00822651
0.00837659
0.00851406
0.00864023
0.00875503
0.00885349
0.00892796
0.00896903
0.00896529
0.00890228
0.00876912
0.0085638
0.00829612
0.00798755
0.00766785
0.00736672
0.00706306
0.00655341
0.00594999
0.00531307
0.00470897
8.69082e-05
0.000776886
0.00149705
0.00212113
0.00267027
0.00316395
0.00361592
0.0040356
0.00442933
0.00480119
0.00515379
0.00548908
0.00580855
0.00611297
0.00640232
0.00667663
0.00693629
0.00718146
0.00741199
0.00762849
0.00783191
0.00802264
0.00820161
0.00837062
0.00853043
0.00868096
0.00882324
0.00895606
0.009073
0.00916508
0.00922042
0.00922356
0.00915766
0.00901206
0.00878795
0.00850099
0.00817732
0.00785108
0.00753859
0.00717293
0.00674411
0.00609648
0.00542328
0.00480682
8.71e-05
0.000778562
0.00151313
0.00215624
0.00272449
0.00323542
0.00370193
0.00413324
0.00453588
0.00491434
0.0052717
0.00561023
0.00593164
0.00623697
0.00652669
0.00680108
0.00706056
0.00730547
0.00753606
0.00775302
0.00795741
0.0081502
0.0083328
0.00850704
0.00867423
0.0088351
0.00899026
0.00913773
0.00927091
0.00937967
0.00944935
0.00946087
0.00939632
0.00924561
0.00901201
0.00871263
0.00836923
0.00800332
0.00761741
0.00720732
0.00679347
0.00617862
0.00552376
0.00491789
0.0044342
8.72468e-05
0.000779708
0.00152739
0.0021889
0.00277625
0.00330487
0.00378668
0.00423056
0.00464308
0.00502901
0.00539181
0.00573407
0.00605774
0.00636419
0.00665425
0.00692854
0.0071876
0.00743197
0.0076622
0.00787912
0.00808393
0.00827799
0.00846299
0.00864097
0.00881367
0.00898227
0.00914709
0.00930576
0.00945157
0.00957345
0.00965539
0.00967627
0.00961601
0.00946525
0.00922745
0.00891702
0.00855093
0.00814465
0.00771634
0.00730054
0.00686615
0.00628483
0.00565313
0.00505996
0.00458591
8.74069e-05
0.000781313
0.00154149
0.0022208
0.00282698
0.00337337
0.00387086
0.00432791
0.00475103
0.00514515
0.00551403
0.00586054
0.0061869
0.00649478
0.00678536
0.00705953
0.0073181
0.0075618
0.00779143
0.00800801
0.00821288
0.00840763
0.00859421
0.0087748
0.00895138
0.00912538
0.0092969
0.00946329
0.00961767
0.00974841
0.00983878
0.00986788
0.00981395
0.00966618
0.0094274
0.00910867
0.00872419
0.008292
0.00784782
0.00744358
0.0070161
0.00645671
0.00583634
0.00524729
0.00477234
8.76211e-05
0.000783848
0.00155649
0.0022532
0.00287786
0.00344185
0.0039551
0.00442561
0.00485977
0.0052626
0.00563808
0.00598933
0.00631882
0.00662849
0.00691983
0.00719404
0.00745214
0.00769513
0.00792402
0.00814003
0.00834465
0.00853964
0.00872711
0.00890931
0.00908837
0.00926573
0.0094413
0.00961221
0.00977141
0.00990697
0.0100021
0.0100366
0.0099899
0.00984665
0.009609
0.00928579
0.00889069
0.00844682
0.00800152
0.00761338
0.00721944
0.00668885
0.00607672
0.00548605
0.00500005
8.79135e-05
0.00078756
0.00157305
0.00228695
0.00292969
0.00351098
0.00403984
0.00452385
0.00496924
0.00538111
0.00576356
0.00611994
0.00645295
0.00676477
0.00705716
0.0073316
0.00758936
0.00783166
0.00805975
0.00827502
0.0084791
0.00867391
0.00886162
0.00904455
0.00922482
0.0094038
0.00958121
0.00975395
0.00991487
0.010052
0.010149
0.0101863
0.010145
0.0100098
0.00977538
0.00945197
0.00905369
0.00860821
0.00816875
0.00779629
0.00744816
0.00695858
0.00636574
0.00577583
0.00527373
8.82935e-05
0.000792527
0.00159148
0.00232249
0.00298296
0.00358114
0.00412531
0.00462266
0.00507929
0.00550031
0.00588996
0.00625175
0.00658858
0.00690285
0.00719659
0.00747148
0.00772906
0.00797076
0.00819803
0.00841243
0.00861574
0.00880997
0.00899736
0.00918021
0.00936058
0.00953972
0.00971718
0.00988967
0.01005
0.0101865
0.0102832
0.0103218
0.0102844
0.0101569
0.00993127
0.00961153
0.00921594
0.00877515
0.00834439
0.00798579
0.00768405
0.00725125
0.00669356
0.00611206
0.00559342
8.87587e-05
0.000798722
0.00161185
0.00235996
0.00303779
0.00365241
0.00421147
0.00472187
0.00518959
0.00561974
0.00601666
0.00638401
0.00672487
0.00704185
0.00733717
0.00761275
0.00787033
0.00811155
0.00833803
0.0085515
0.00875385
0.00894718
0.00913374
0.00931581
0.00949536
0.0096735
0.00984961
0.0100203
0.0101786
0.010313
0.0104083
0.0104473
0.0104131
0.0102924
0.0100775
0.00976865
0.00938012
0.00894754
0.00852575
0.00817667
0.00791269
0.00755635
0.00705031
0.00648808
0.0059583
8.92998e-05
0.000806023
0.00163397
0.00239917
0.00309401
0.00372458
0.00429807
0.00482113
0.00529966
0.0057388
0.00614296
0.00651592
0.00686094
0.00718079
0.00747789
0.00775435
0.00801211
0.00825297
0.00847874
0.00869127
0.00889255
0.00908473
0.00927007
0.0094508
0.00962879
0.00980502
0.00997876
0.0101467
0.0103018
0.0104334
0.010527
0.0105662
0.0105352
0.0104212
0.0102169
0.00992259
0.00954917
0.00912687
0.00871326
0.00836982
0.00812413
0.00785559
0.00742235
0.00689427
0.00636697
8.9918e-05
0.000814245
0.00165748
0.00243968
0.00315119
0.00379723
0.00438463
0.00491991
0.00540892
0.00585681
0.00626807
0.00664661
0.00699582
0.00731864
0.00761766
0.00789516
0.00815325
0.00839391
0.00861906
0.00883068
0.00903084
0.00922172
0.00940556
0.00958454
0.00976042
0.00993407
0.0101047
0.0102691
0.0104207
0.0105492
0.010641
0.0106808
0.0106535
0.0105469
0.0103539
0.0100747
0.00972
0.00931611
0.0089095
0.00856609
0.0083225
0.00812382
0.00778528
0.00731653
0.00681157
9.05894e-05
0.000823177
0.00168193
0.0024809
0.00320859
0.00386964
0.00447052
0.00501756
0.00551665
0.005973
0.00639116
0.00677517
0.00712854
0.00745437
0.00775538
0.00803405
0.00829261
0.00853318
0.00875782
0.0089686
0.00916764
0.00935714
0.00953932
0.00971627
0.00988967
0.0100603
0.0102274
0.0103879
0.0105356
0.0106609
0.0107513
0.0107923
0.0107695
0.0106714
0.0104909
0.0102282
0.00989315
0.00950982
0.00911893
0.00877203
0.00852026
0.00834944
0.00812178
0.00774146
0.00728142
9.12492e-05
0.000832575
0.00170689
0.00252229
0.00326563
0.00394103
0.00455483
0.00511329
0.00562208
0.00608655
0.00651138
0.00690069
0.00725814
0.00758694
0.00789
0.00816989
0.00842901
0.00866961
0.00889384
0.00910386
0.00930183
0.00948994
0.00967038
0.00984515
0.0100158
0.0101832
0.0103464
0.0105027
0.0106464
0.0107687
0.0108579
0.0109007
0.0108836
0.0107953
0.010629
0.0103844
0.0100703
0.00970805
0.00933309
0.00899146
0.00872419
0.00855181
0.00841209
0.00814364
0.00775512
9.18692e-05
0.000842178
0.00173186
0.00256323
0.00332165
0.00401077
0.00463684
0.0052061
0.00572432
0.00619663
0.00662784
0.00702226
0.00738366
0.00771538
0.00802046
0.00830161
0.00856136
0.00880207
0.00902598
0.00923532
0.00943228
0.00961903
0.00979771
0.00997023
0.0101381
0.010302
0.0104612
0.0106132
0.0107527
0.010872
0.0109603
0.0110053
0.0109947
0.0109175
0.010767
0.0105423
0.010251
0.00991121
0.00955305
0.00921672
0.00894229
0.00875154
0.00863313
0.00848983
0.00821124
9.24334e-05
0.000851735
0.00175636
0.00260311
0.00337596
0.00407818
0.00471588
0.00529535
0.0058224
0.00630231
0.00673972
0.00713902
0.0075042
0.00783874
0.00814579
0.0084282
0.0086886
0.00892947
0.00915313
0.00936186
0.00955786
0.00974331
0.00992025
0.0100905
0.0102555
0.0104159
0.010571
0.0107185
0.0108539
0.01097
0.0110574
0.0111049
0.0111011
0.0110358
0.0109024
0.0106995
0.0104329
0.0101175
0.00977868
0.00945034
0.00916957
0.00896423
0.00883617
0.00874856
0.00860841
9.29309e-05
0.000861016
0.00177996
0.00264134
0.00342792
0.00414257
0.0047913
0.00538039
0.00591574
0.00640271
0.00684609
0.00725016
0.00761894
0.00795617
0.0082651
0.00854871
0.00880976
0.0090508
0.00927424
0.0094824
0.00967751
0.00986168
0.0100369
0.0102049
0.0103671
0.0105238
0.0106748
0.0108178
0.0109488
0.0110615
0.0111478
0.0111975
0.0112005
0.0111474
0.0110318
0.0108517
0.0106115
0.0103231
0.010007
0.00969141
0.00940901
0.0091892
0.00904659
0.00896611
0.00889851
9.33544e-05
0.000869818
0.00180226
0.00267743
0.00347694
0.00420331
0.00486245
0.00546061
0.00600375
0.00649731
0.00694619
0.00735482
0.00772712
0.00806686
0.00837757
0.00866231
0.00892396
0.00916514
0.00938837
0.00959597
0.00979019
0.00997311
0.0101466
0.0103124
0.0104717
0.0106249
0.0107716
0.0109099
0.0110363
0.0111454
0.0112299
0.0112813
0.0112904
0.011249
0.0111509
0.010994
0.0107812
0.0105218
0.0102321
0.009935
0.00965807
0.00942898
0.00926815
0.00917795
0.00913175
9.36998e-05
0.00087797
0.00182295
0.00271095
0.00352253
0.00425989
0.00492878
0.00553545
0.00608588
0.00658558
0.00703955
0.00745231
0.00782796
0.00817017
0.00848249
0.00876826
0.00903041
0.00927169
0.00949465
0.00970166
0.00989496
0.0100766
0.0102484
0.010412
0.0105683
0.0107179
0.0108602
0.0109937
0.0111153
0.0112202
0.0113024
0.0113544
0.0113684
0.0113373
0.0112557
0.0111212
0.0109357
0.0107064
0.0104461
0.0101728
0.00990921
0.00967935
0.00950446
0.00939587
0.00934699
9.39663e-05
0.000885337
0.00184177
0.00274156
0.00356433
0.00431189
0.00498987
0.00560446
0.00616168
0.00666707
0.00712572
0.00754226
0.00792088
0.0082654
0.00857928
0.00886592
0.00912847
0.00936974
0.00959233
0.00979868
0.009991
0.0101713
0.0103414
0.0105026
0.0106559
0.0108018
0.0109397
0.0110682
0.0111846
0.0112848
0.0113637
0.0114151
0.0114325
0.0114098
0.0113425
0.0112284
0.011069
0.0108695
0.01064
0.0103946
0.0101513
0.00993021
0.00975051
0.00962655
0.00956242
9.41558e-05
0.000891823
0.00185854
0.00276904
0.00360204
0.004359
0.00504537
0.0056673
0.00623078
0.00674142
0.00720436
0.00762431
0.00800558
0.00835207
0.00866739
0.00895479
0.00921758
0.0094587
0.00968081
0.00988636
0.0100776
0.0102564
0.0104246
0.0105834
0.0107337
0.0108757
0.0110091
0.0111324
0.0112432
0.0113382
0.011413
0.0114624
0.0114812
0.0114645
0.0114087
0.0113122
0.011176
0.0110045
0.0108053
0.0105897
0.0103718
0.0101678
0.00999385
0.00986409
0.00978693
9.42717e-05
0.000897364
0.00187316
0.00279326
0.00363552
0.00440103
0.00509507
0.00572372
0.00629294
0.00680837
0.00727521
0.00769822
0.0080818
0.00842996
0.00874639
0.00903448
0.00929734
0.00953813
0.00975958
0.00996416
0.0101541
0.0103313
0.0104974
0.0106537
0.0108007
0.0109389
0.0110675
0.0111854
0.0112904
0.0113796
0.0114493
0.0114954
0.0115137
0.0115005
0.0114531
0.0113705
0.0112538
0.0111067
0.0109356
0.0107493
0.010559
0.0103775
0.0102182
0.0100934
0.0100125
9.43188e-05
0.000901932
0.0018856
0.00281418
0.00366471
0.00443791
0.00513887
0.00577359
0.00634802
0.00686778
0.00733811
0.00776383
0.0081494
0.00849892
0.00881616
0.00910461
0.00936747
0.00960772
0.0098283
0.0100317
0.0102201
0.0103955
0.0105594
0.0107128
0.0108565
0.0109905
0.0111143
0.0112266
0.0113256
0.0114085
0.0114725
0.0115142
0.0115303
0.0115181
0.0114759
0.0114033
0.0113018
0.0111748
0.0110277
0.010868
0.0107046
0.0105478
0.0104084
0.0102966
0.0102214
9.43024e-05
0.000905531
0.00189588
0.00283183
0.00368963
0.00446963
0.00517675
0.00581689
0.00639596
0.00691958
0.007393
0.00782109
0.00820834
0.00855891
0.00887668
0.00916519
0.00942773
0.00966732
0.00988677
0.0100887
0.0102754
0.0104487
0.0106101
0.0107605
0.0109006
0.0110304
0.0111492
0.0112558
0.0113485
0.0114251
0.0114828
0.0115192
0.0115317
0.0115185
0.0114786
0.0114125
0.0113218
0.0112101
0.0110823
0.0109449
0.0108055
0.0106723
0.0105543
0.0104599
0.0103969
9.42278e-05
0.000908192
0.00190407
0.0028463
0.00371036
0.00449627
0.00520877
0.00585366
0.00643681
0.00696381
0.00743992
0.00787002
0.00825864
0.00860999
0.00892799
0.00921627
0.00947818
0.00971681
0.00993494
0.0101352
0.0103198
0.0104907
0.0106493
0.0107965
0.0109329
0.0110582
0.011172
0.0112729
0.0113594
0.0114295
0.0114809
0.0115115
0.0115195
0.0115038
0.0114642
0.0114015
0.011318
0.0112172
0.011104
0.0109842
0.0108644
0.0107519
0.0106539
0.0105776
0.0105294
9.40999e-05
0.000909964
0.0019103
0.00285774
0.00372706
0.00451797
0.00523506
0.00588402
0.00647068
0.0070006
0.007479
0.00791077
0.00830045
0.0086523
0.00897026
0.00925803
0.00951902
0.00975635
0.00997289
0.0101712
0.0103535
0.0105217
0.0106772
0.010821
0.0109533
0.0110742
0.0111829
0.0112783
0.0113587
0.0114225
0.0114677
0.0114926
0.0114959
0.011477
0.0114362
0.011375
0.0112959
0.0112027
0.0111
0.0109935
0.0108893
0.0107936
0.0107128
0.010653
0.0106198
9.3923e-05
0.000910903
0.00191468
0.00286629
0.00373988
0.0045349
0.00525578
0.00590815
0.00649776
0.00703011
0.00751042
0.00794353
0.008334
0.00868609
0.00900376
0.00929076
0.00955053
0.00978627
0.0100009
0.0101969
)
;

boundaryField
{
    leftWall
    {
        type            nutkWallFunction;
        Cmu             0.09;
        kappa           0.41;
        E               9.8;
        value           nonuniform List<scalar> 
44
(
4.05179e-06
5.33591e-06
5.97647e-06
6.31585e-06
6.45858e-06
6.52075e-06
6.61308e-06
6.72311e-06
6.91266e-06
7.36285e-06
7.67222e-06
4.59348e-07
1.26513e-06
1.82784e-06
2.27507e-06
2.52785e-06
2.66919e-06
2.74192e-06
2.78678e-06
2.83045e-06
2.8599e-06
2.88426e-06
2.91288e-06
2.95208e-06
3.00555e-06
3.07451e-06
3.15829e-06
3.2548e-06
3.36064e-06
3.46917e-06
3.57411e-06
3.67202e-06
3.76061e-06
3.8382e-06
3.9037e-06
3.95654e-06
3.99665e-06
4.0244e-06
4.04043e-06
4.04559e-06
4.04078e-06
4.02692e-06
4.00482e-06
3.97513e-06
)
;
    }
    rightWall
    {
        type            nutkWallFunction;
        Cmu             0.09;
        kappa           0.41;
        E               9.8;
        value           nonuniform 0();
    }
    lowerWall
    {
        type            nutkWallFunction;
        Cmu             0.09;
        kappa           0.41;
        E               9.8;
        value           nonuniform List<scalar> 
44
(
2.98633e-06
4.09128e-06
4.90793e-06
5.53457e-06
6.0268e-06
6.41661e-06
6.72618e-06
6.98323e-06
7.20926e-06
7.41491e-06
7.60522e-06
7.78324e-06
7.95092e-06
8.10956e-06
8.25984e-06
8.4021e-06
8.53648e-06
8.66302e-06
8.78163e-06
8.8921e-06
8.99413e-06
9.08734e-06
9.17133e-06
9.24564e-06
9.3098e-06
9.36336e-06
9.40584e-06
9.43689e-06
9.45627e-06
9.46393e-06
9.46022e-06
9.44608e-06
9.42393e-06
9.39816e-06
9.36628e-06
9.32402e-06
9.26646e-06
9.18947e-06
9.101e-06
8.99128e-06
8.79116e-06
8.46513e-06
7.99052e-06
7.31906e-06
)
;
    }
    atmosphere
    {
        type            calculated;
        value           nonuniform 0();
    }
    defaultFaces
    {
        type            empty;
    }
    procBoundary0to1
    {
        type            processor;
        value           nonuniform List<scalar> 
44
(
5.21121e-05
0.000304582
0.000476609
0.000618863
0.000745792
0.000862754
0.000977217
0.00110232
0.00126347
0.00153337
0.00228323
0.00294369
0.00339881
0.00367601
0.0038416
0.00394892
0.00403237
0.00411466
0.00420519
0.0043098
0.0043098
0.00411397
0.00427332
0.00445489
0.00466687
0.00491471
0.00520226
0.00553291
0.0059131
0.00634166
0.0068172
0.00732529
0.00784459
0.00834151
0.00876865
0.00908186
0.00932957
0.00954809
0.00976233
0.00997981
0.0101886
0.010371
0.0105146
0.0106175
)
;
    }
    procBoundary0to2
    {
        type            processor;
        value           nonuniform List<scalar> 
46
(
0.0103766
0.0105418
0.010694
0.010834
0.0109623
0.0110787
0.0111824
0.0112724
0.0113471
0.0114051
0.0114446
0.0114643
0.0114631
0.0114411
0.0113989
0.0113382
0.0112621
0.0111742
0.0110794
0.010983
0.0108908
0.0108086
0.0107421
0.0106966
0.010677
9.37005e-05
0.000911081
0.00191735
0.00287211
0.003749
0.00454722
0.00527113
0.00592625
0.00651826
0.00705261
0.00753445
0.0079686
0.0083596
0.00871167
0.00902883
0.00931482
0.00957313
0.00980698
0.0100193
0.0103766
0.0102128
)
;
    }
}


// ************************************************************************* //
