/*--------------------------------*- C++ -*----------------------------------*\
| =========                 |                                                 |
| \\      /  F ield         | OpenFOAM: The Open Source CFD Toolbox           |
|  \\    /   O peration     | Version:  5.0                                   |
|   \\  /    A nd           | Web:      www.OpenFOAM.org                      |
|    \\/     M anipulation  |                                                 |
\*---------------------------------------------------------------------------*/
FoamFile
{
    version     2.0;
    format      ascii;
    class       volScalarField;
    location    "0.8";
    object      p;
}
// * * * * * * * * * * * * * * * * * * * * * * * * * * * * * * * * * * * * * //

dimensions      [1 -1 -2 0 0 0 0];

internalField   nonuniform List<scalar> 
1935
(
452.175
451.108
450.951
452.202
454.981
459.095
464.059
469.752
476.236
483.386
491.142
499.461
508.302
517.624
527.384
537.541
548.053
558.879
569.978
581.309
592.833
604.512
616.309
628.19
640.121
652.072
664.012
675.914
687.749
699.488
711.097
722.534
733.726
744.673
755.236
765.354
774.81
783.462
791.14
797.872
803.309
807.121
809.579
810.755
405.142
403.815
403.43
404.635
407.441
411.47
416.597
422.611
429.295
436.627
444.558
453.036
462.011
471.443
481.29
491.513
502.073
512.929
524.042
535.373
546.884
558.537
570.295
582.124
593.991
605.863
617.711
629.506
641.219
652.821
664.275
675.546
686.598
697.296
707.621
717.498
726.856
735.592
742.981
748.769
753.597
757.372
759.662
760.666
356.859
355.705
355.695
357.187
360.092
364.208
369.39
375.477
382.317
389.831
397.946
406.597
415.729
425.297
435.259
445.575
456.207
467.117
478.265
489.613
501.123
512.759
524.482
536.259
548.054
559.836
571.572
583.234
594.79
606.208
617.452
628.482
639.25
649.669
659.676
669.203
678.216
686.6
693.731
699.406
704.421
708.163
710.355
711.072
307.7
306.937
307.493
309.351
312.436
316.663
321.926
328.1
335.063
342.721
350.991
359.796
369.077
378.783
388.87
399.297
410.023
421.01
432.218
443.61
455.147
466.791
478.505
490.253
502
513.71
525.353
536.896
548.307
559.553
570.597
581.398
591.907
602.059
611.786
621.017
629.69
637.665
644.581
650.364
655.306
659.032
661.187
661.445
258.019
257.792
258.913
261.091
264.36
268.7
274.045
280.3
287.366
295.148
303.556
312.507
321.934
331.786
342.015
352.573
363.418
374.511
385.811
397.279
408.875
420.562
432.3
444.053
455.783
467.456
479.037
490.495
501.795
512.904
523.787
534.404
544.712
554.656
564.175
573.198
581.649
589.398
596.208
601.967
606.729
610.298
612.24
612.149
207.984
208.298
209.957
212.38
215.803
220.242
225.661
231.992
239.154
247.057
255.607
264.71
274.297
284.313
294.709
305.427
316.422
327.654
339.08
350.658
362.35
374.114
385.91
397.702
409.45
421.118
432.672
444.078
455.302
466.312
477.073
487.553
497.713
507.506
516.878
525.764
534.082
541.708
548.452
554.17
558.779
562.051
563.674
563.396
157.413
158.395
160.493
163.151
166.737
171.284
176.78
183.186
190.441
198.465
207.162
216.425
226.18
236.379
246.966
257.874
269.053
280.461
292.051
303.778
315.602
327.48
339.37
351.236
363.035
374.731
386.29
397.678
408.86
419.806
430.484
440.868
450.926
460.618
469.896
478.7
486.946
494.51
501.212
506.871
511.317
514.312
515.612
515.1
106.119
107.742
110.213
113.161
116.964
121.676
127.307
133.845
141.248
149.445
158.335
167.773
177.69
188.062
198.849
209.962
221.344
232.956
244.745
256.657
268.653
280.681
292.7
304.677
316.561
328.316
339.914
351.317
362.49
373.406
384.038
394.364
404.36
413.993
423.222
431.992
440.218
447.769
454.451
460.033
464.268
466.899
467.748
466.932
53.727
55.7555
58.2918
61.2281
65.0001
69.7984
75.6955
82.6616
90.5924
99.3652
108.822
118.64
128.828
139.451
150.504
161.85
173.429
185.239
197.227
209.34
221.537
233.746
245.926
258.051
270.055
281.898
293.568
305.018
316.211
327.129
337.747
348.049
358.018
367.628
376.848
385.628
393.883
401.469
408.16
413.65
417.576
419.604
419.562
417.852
12.7126
14.022
15.4073
16.9385
19.004
21.9729
26.1045
31.5146
38.2544
46.414
55.9637
66.707
77.9224
89.5057
101.452
113.406
125.339
137.433
149.659
161.971
174.36
186.741
199.09
211.395
223.547
235.502
247.277
258.806
270.045
280.992
291.623
301.925
311.895
321.513
330.757
339.59
347.927
355.611
362.369
367.777
371.275
372.264
370.273
365.481
0.0740598
0.140207
0.293618
0.464758
0.726347
1.20585
2.06401
3.45896
5.57948
8.6643
12.9517
19.3953
27.6759
37.5198
48.9495
61.6293
74.8951
88.2069
101.312
114.093
126.79
139.369
151.871
164.359
176.659
188.732
200.648
212.29
223.595
234.597
245.264
255.583
265.571
275.216
284.509
293.435
301.916
309.792
316.741
322.189
325.272
324.881
319.833
309.29
-0.117886
-0.123296
-0.111246
-0.0959454
-0.0810862
-0.0690048
-0.06345
-0.0644924
-0.0685076
-0.0681271
-0.0339763
0.535767
2.19629
5.12655
9.57922
16.1693
25.4911
36.8069
49.6221
63.5955
77.6729
91.0961
103.988
116.774
129.243
141.397
153.474
165.261
176.65
187.742
198.468
208.813
218.836
228.519
237.872
246.925
255.622
263.822
271.19
277.01
280.079
278.669
270.91
255.406
-0.175605
-0.176836
-0.176161
-0.176169
-0.17705
-0.17937
-0.182608
-0.185645
-0.187143
-0.183845
-0.167761
-0.142468
-0.153107
-0.17431
-0.160615
0.0622552
1.60557
4.83092
10.1006
18.2762
28.9705
40.9522
54.2981
68.367
81.4553
93.6769
105.954
117.918
129.364
140.568
151.384
161.773
171.855
181.586
191
200.207
209.185
217.862
225.966
232.704
236.579
235.152
225.896
207.531
-0.233637
-0.234531
-0.232735
-0.230783
-0.229395
-0.22936
-0.230599
-0.232418
-0.233844
-0.233593
-0.233066
-0.248187
-0.26489
-0.271845
-0.260483
-0.238027
-0.238543
-0.293436
-0.274563
0.282006
2.5241
6.69615
13.5732
23.2793
33.8075
45.3322
58.3351
70.6381
81.8825
93.085
103.962
114.347
124.491
134.27
143.736
153.132
162.459
171.792
181.048
189.429
195.216
195.129
185.745
166.235
-0.292249
-0.292861
-0.291201
-0.288664
-0.286247
-0.284757
-0.284473
-0.285179
-0.28633
-0.287377
-0.289149
-0.299029
-0.310109
-0.316647
-0.318268
-0.329478
-0.354143
-0.368361
-0.349233
-0.328287
-0.392263
-0.4321
-0.251495
1.25807
4.4459
9.79458
17.6566
26.1813
35.5288
46.5941
57.2285
67.0656
76.9809
86.6036
95.946
105.496
115.194
125.395
136.475
147.637
156.802
159.418
150.895
131.082
-0.351412
-0.351751
-0.350605
-0.348659
-0.346708
-0.345334
-0.34482
-0.345148
-0.346088
-0.347405
-0.349411
-0.354673
-0.361856
-0.368404
-0.37373
-0.383928
-0.401115
-0.412389
-0.415184
-0.437642
-0.465274
-0.462389
-0.448449
-0.488992
-0.580056
-0.539275
0.192189
2.23518
6.15053
11.9012
17.5954
24.0495
32.356
40.7329
48.9977
58.027
67.4507
78.0623
91.4269
107.307
123.379
130.717
122.703
101.706
-0.411122
-0.411241
-0.410336
-0.408822
-0.407328
-0.406245
-0.405807
-0.40607
-0.406976
-0.408484
-0.410843
-0.415087
-0.420874
-0.427003
-0.432994
-0.441014
-0.452707
-0.464062
-0.473159
-0.491046
-0.5099
-0.517623
-0.532019
-0.560277
-0.57275
-0.556638
-0.572741
-0.682403
-0.698004
-0.615268
0.0192578
2.24803
6.03739
9.66065
13.0649
18.2529
24.0257
31.2203
42.749
61.2975
91.6954
112.706
104.392
78.1517
-0.471522
-0.47138
-0.470503
-0.469234
-0.468002
-0.46711
-0.466753
-0.467021
-0.467941
-0.469564
-0.4721
-0.476044
-0.481205
-0.487002
-0.49326
-0.500901
-0.510766
-0.521293
-0.531213
-0.544561
-0.560176
-0.572794
-0.58784
-0.60749
-0.617625
-0.619971
-0.637194
-0.657576
-0.644744
-0.635414
-0.67774
-0.731506
-0.711111
-0.682687
-0.604106
0.604285
2.07695
3.98073
7.53923
15.2619
48.4405
93.4252
94.472
60.2127
-0.53253
-0.53213
-0.531216
-0.530089
-0.529055
-0.528329
-0.528071
-0.528382
-0.529328
-0.530986
-0.533513
-0.537162
-0.541861
-0.547347
-0.553587
-0.56103
-0.570015
-0.579784
-0.589774
-0.601597
-0.615021
-0.627518
-0.640474
-0.655577
-0.66771
-0.675455
-0.687404
-0.695733
-0.690392
-0.683197
-0.681567
-0.678059
-0.660384
-0.6451
-0.648149
-0.669467
-0.574476
-0.439918
-0.171457
1.24385
14.9191
51.8011
75.8181
45.4652
-0.594121
-0.593468
-0.592467
-0.591434
-0.590568
-0.590004
-0.589867
-0.590254
-0.591241
-0.592908
-0.595371
-0.59877
-0.603102
-0.608266
-0.614271
-0.62133
-0.629593
-0.638691
-0.648384
-0.659285
-0.671111
-0.682652
-0.694225
-0.706498
-0.717167
-0.724769
-0.732826
-0.738886
-0.736845
-0.730867
-0.723858
-0.711926
-0.691207
-0.663366
-0.622706
-0.550836
-0.437577
-0.276038
-0.0633036
0.509836
3.1737
12.84
41.4183
31.0095
-0.656275
-0.655373
-0.654265
-0.653289
-0.652557
-0.652141
-0.652128
-0.652604
-0.653641
-0.655315
-0.657715
-0.660929
-0.664981
-0.669846
-0.675539
-0.682161
-0.689775
-0.698208
-0.707321
-0.717286
-0.727858
-0.73837
-0.748732
-0.758919
-0.767636
-0.773961
-0.779191
-0.78212
-0.77943
-0.772812
-0.763798
-0.749557
-0.726372
-0.693342
-0.645663
-0.574128
-0.472119
-0.331053
-0.170334
0.00689225
0.515648
4.0966
16.9112
18.3361
17.5296
-0.71897
-0.717843
-0.716631
-0.715685
-0.715056
-0.714762
-0.714861
-0.715422
-0.716509
-0.718188
-0.72053
-0.723601
-0.727432
-0.732028
-0.737407
-0.743612
-0.750663
-0.758465
-0.766907
-0.775973
-0.785452
-0.7949
-0.80405
-0.812605
-0.819702
-0.824658
-0.827693
-0.827966
-0.823843
-0.815898
-0.804593
-0.78808
-0.763755
-0.730395
-0.685688
-0.625743
-0.547164
-0.449789
-0.349216
-0.307158
-0.405982
0.0929024
0.802189
7.72502
18.1632
-0.782189
-0.780879
-0.779579
-0.778649
-0.778098
-0.777904
-0.778099
-0.778734
-0.779863
-0.781541
-0.783829
-0.786777
-0.79042
-0.794772
-0.799851
-0.805673
-0.812233
-0.819458
-0.827249
-0.835511
-0.844037
-0.85248
-0.860499
-0.867708
-0.873448
-0.877126
-0.878521
-0.877001
-0.871707
-0.862714
-0.849998
-0.832432
-0.808446
-0.777044
-0.737132
-0.687988
-0.630518
-0.569001
-0.512736
-0.503826
-0.714782
-1.14937
-7.81304
-2.03093
17.7748
-0.845923
-0.844478
-0.843114
-0.842198
-0.84171
-0.841598
-0.841873
-0.842572
-0.843734
-0.845408
-0.847641
-0.850478
-0.853951
-0.85808
-0.862877
-0.868346
-0.874467
-0.881175
-0.888372
-0.895929
-0.90364
-0.911197
-0.918242
-0.924357
-0.928981
-0.93157
-0.931756
-0.92906
-0.922986
-0.91347
-0.900392
-0.883097
-0.860661
-0.832468
-0.798298
-0.758947
-0.717108
-0.678022
-0.6469
-0.636916
-0.756208
-1.26011
-10.6916
-12.5521
14.8231
-0.910158
-0.908629
-0.907229
-0.906329
-0.905896
-0.905855
-0.906202
-0.906956
-0.90815
-0.909819
-0.912002
-0.914739
-0.918059
-0.921981
-0.926515
-0.931659
-0.937385
-0.94363
-0.950296
-0.957244
-0.964267
-0.97108
-0.977327
-0.982585
-0.986346
-0.988102
-0.987457
-0.984038
-0.977559
-0.967985
-0.955274
-0.939102
-0.918975
-0.894625
-0.866354
-0.83548
-0.804617
-0.77793
-0.757087
-0.7315
-0.746006
-1.18959
-9.7218
-20.685
6.60549
-0.974879
-0.973313
-0.971903
-0.971026
-0.970643
-0.970667
-0.971078
-0.971887
-0.973113
-0.974783
-0.976928
-0.97958
-0.982766
-0.986503
-0.9908
-0.995648
-1.00102
-1.00685
-1.01305
-1.01948
-1.02593
-1.03214
-1.03776
-1.04238
-1.04553
-1.04672
-1.04559
-1.04182
-1.03529
-1.02605
-1.01418
-0.999615
-0.982158
-0.961786
-0.939032
-0.915246
-0.892491
-0.873595
-0.858015
-0.82354
-0.782693
-1.16394
-7.00811
-23.9138
-8.00636
-1.04007
-1.0385
-1.03711
-1.03626
-1.03592
-1.03601
-1.03648
-1.03734
-1.0386
-1.04028
-1.0424
-1.04499
-1.04807
-1.05165
-1.05574
-1.06033
-1.0654
-1.07087
-1.07667
-1.08266
-1.08865
-1.09438
-1.09953
-1.10371
-1.10647
-1.10737
-1.10604
-1.10225
-1.09598
-1.08737
-1.07666
-1.06398
-1.04933
-1.03281
-1.01504
-0.997229
-0.980988
-0.968287
-0.958277
-0.929026
-0.879503
-1.2248
-3.95372
-20.6617
-21.8902
-1.1057
-1.10418
-1.10281
-1.102
-1.10171
-1.10184
-1.10237
-1.10328
-1.10458
-1.10628
-1.1084
-1.11094
-1.11394
-1.1174
-1.12132
-1.1257
-1.1305
-1.13568
-1.14115
-1.14678
-1.1524
-1.15777
-1.1626
-1.1665
-1.16908
-1.1699
-1.16863
-1.16509
-1.15932
-1.15159
-1.14224
-1.13157
-1.11972
-1.10686
-1.09355
-1.08088
-1.07011
-1.06264
-1.0589
-1.04868
-1.02418
-1.16744
-1.84222
-13.104
-28.2209
-1.17177
-1.17031
-1.16899
-1.16821
-1.16796
-1.16814
-1.16872
-1.16968
-1.17102
-1.17274
-1.17486
-1.17738
-1.18032
-1.18369
-1.18749
-1.1917
-1.1963
-1.20124
-1.20644
-1.21179
-1.21714
-1.22226
-1.22689
-1.23067
-1.23322
-1.23415
-1.23315
-1.23007
-1.225
-1.21828
-1.2104
-1.20176
-1.19262
-1.18316
-1.17385
-1.16559
-1.15944
-1.15614
-1.15644
-1.15667
-1.14279
-1.15875
-1.50869
-5.95907
-24.8205
-1.23825
-1.23687
-1.23561
-1.23488
-1.23466
-1.23488
-1.2355
-1.23649
-1.23787
-1.23961
-1.24174
-1.24426
-1.24716
-1.25047
-1.25417
-1.25826
-1.26271
-1.26747
-1.27248
-1.27764
-1.2828
-1.28777
-1.2923
-1.29608
-1.29875
-1.29995
-1.29938
-1.29691
-1.29268
-1.28707
-1.28065
-1.27397
-1.26737
-1.26103
-1.2553
-1.25091
-1.24878
-1.24947
-1.25336
-1.26044
-1.26318
-1.25998
-1.41138
-2.1608
-13.7682
-1.30512
-1.30384
-1.30266
-1.30198
-1.30179
-1.30204
-1.30269
-1.30372
-1.30512
-1.30688
-1.30902
-1.31153
-1.31442
-1.31769
-1.32133
-1.32533
-1.32967
-1.33432
-1.33919
-1.34422
-1.34927
-1.35418
-1.35872
-1.3626
-1.36551
-1.36709
-1.36708
-1.36536
-1.36206
-1.3576
-1.35262
-1.34776
-1.34345
-1.33991
-1.33735
-1.33634
-1.3377
-1.34201
-1.34946
-1.361
-1.37537
-1.38123
-1.40399
-1.69868
-4.35076
-1.37239
-1.37122
-1.37012
-1.36948
-1.36934
-1.36962
-1.37029
-1.37133
-1.37275
-1.37453
-1.37668
-1.37919
-1.38207
-1.38531
-1.38891
-1.39285
-1.39713
-1.40169
-1.4065
-1.41146
-1.41647
-1.42139
-1.42602
-1.4301
-1.43333
-1.43541
-1.43606
-1.43517
-1.43287
-1.42959
-1.42599
-1.42279
-1.42052
-1.41941
-1.41962
-1.42153
-1.42586
-1.43333
-1.44434
-1.45957
-1.4807
-1.50458
-1.52678
-1.60855
-1.95849
-1.44002
-1.43897
-1.43797
-1.43739
-1.43728
-1.43759
-1.43828
-1.43934
-1.44077
-1.44256
-1.44471
-1.44722
-1.45008
-1.45331
-1.45688
-1.46079
-1.46503
-1.46955
-1.47432
-1.47927
-1.4843
-1.4893
-1.49408
-1.49842
-1.50207
-1.50471
-1.50611
-1.50614
-1.5049
-1.5028
-1.50052
-1.49883
-1.49834
-1.49933
-1.5019
-1.50631
-1.51314
-1.52321
-1.53725
-1.5558
-1.57996
-1.61194
-1.6498
-1.69198
-1.77458
-1.50803
-1.5071
-1.5062
-1.50569
-1.50562
-1.50596
-1.50666
-1.50774
-1.50918
-1.51097
-1.51312
-1.51562
-1.51847
-1.52168
-1.52523
-1.52913
-1.53334
-1.53785
-1.54262
-1.54759
-1.55268
-1.5578
-1.56279
-1.56746
-1.57156
-1.57484
-1.57705
-1.57805
-1.57792
-1.57702
-1.57602
-1.57569
-1.57674
-1.57951
-1.58409
-1.5906
-1.59951
-1.61161
-1.62783
-1.64891
-1.67506
-1.70734
-1.74933
-1.79729
-1.83336
-1.57641
-1.5756
-1.57481
-1.57437
-1.57435
-1.57471
-1.57544
-1.57653
-1.57797
-1.57976
-1.5819
-1.5844
-1.58724
-1.59043
-1.59397
-1.59785
-1.60205
-1.60656
-1.61135
-1.61636
-1.62155
-1.62682
-1.63205
-1.63708
-1.64168
-1.64564
-1.6487
-1.65072
-1.65173
-1.65205
-1.65228
-1.6532
-1.65558
-1.65983
-1.66608
-1.67435
-1.68495
-1.69859
-1.71618
-1.73854
-1.76588
-1.79799
-1.83677
-1.88551
-1.93142
-1.64514
-1.64447
-1.64379
-1.64343
-1.64346
-1.64385
-1.6446
-1.6457
-1.64715
-1.64894
-1.65107
-1.65355
-1.65638
-1.65956
-1.66308
-1.66695
-1.67115
-1.67567
-1.68048
-1.68556
-1.69085
-1.69629
-1.70178
-1.70718
-1.7123
-1.71694
-1.72088
-1.72394
-1.72613
-1.72768
-1.72912
-1.7312
-1.73472
-1.74019
-1.74779
-1.7575
-1.76948
-1.78425
-1.80263
-1.82531
-1.85259
-1.88439
-1.92099
-1.96428
-2.01333
-1.71425
-1.71369
-1.71313
-1.71286
-1.71294
-1.71338
-1.71415
-1.71526
-1.71671
-1.7185
-1.72063
-1.7231
-1.72591
-1.72907
-1.73258
-1.73643
-1.74063
-1.74516
-1.75001
-1.75515
-1.76055
-1.76616
-1.77191
-1.77767
-1.78331
-1.78864
-1.79344
-1.79755
-1.80093
-1.80372
-1.80636
-1.80955
-1.81407
-1.82051
-1.82916
-1.84001
-1.85308
-1.86873
-1.88756
-1.91014
-1.93672
-1.96743
-2.00272
-2.04257
-2.0866
-1.78372
-1.78328
-1.78284
-1.78265
-1.7828
-1.78327
-1.78408
-1.7852
-1.78666
-1.78845
-1.79057
-1.79302
-1.79582
-1.79896
-1.80245
-1.80629
-1.81048
-1.81502
-1.8199
-1.8251
-1.8306
-1.83638
-1.84236
-1.84848
-1.85461
-1.86059
-1.86624
-1.87138
-1.87594
-1.87998
-1.88385
-1.88813
-1.89356
-1.90079
-1.91022
-1.92191
-1.93583
-1.95214
-1.97125
-1.99361
-2.01942
-2.04887
-2.08249
-2.12053
-2.16158
-1.85356
-1.85324
-1.85291
-1.85281
-1.85302
-1.85354
-1.85438
-1.85552
-1.85699
-1.85878
-1.86089
-1.86333
-1.8661
-1.86923
-1.8727
-1.87652
-1.8807
-1.88524
-1.89014
-1.89539
-1.90098
-1.9069
-1.91311
-1.91954
-1.92612
-1.9327
-1.93914
-1.94527
-1.95098
-1.95629
-1.96142
-1.96682
-1.97314
-1.98107
-1.99107
-2.00332
-2.0178
-2.03455
-2.05379
-2.07584
-2.10092
-2.12918
-2.16103
-2.19704
-2.23676
-1.92378
-1.92355
-1.92334
-1.92333
-1.92361
-1.92418
-1.92505
-1.92622
-1.92769
-1.92948
-1.93158
-1.93401
-1.93677
-1.93987
-1.94331
-1.94711
-1.95127
-1.95581
-1.96071
-1.966
-1.97166
-1.9777
-1.9841
-1.99081
-1.99777
-2.00489
-2.01205
-2.01909
-2.02591
-2.03247
-2.03888
-2.04548
-2.05277
-2.06138
-2.07182
-2.08439
-2.09914
-2.11607
-2.13523
-2.15683
-2.18107
-2.20813
-2.23831
-2.27212
-2.30994
-1.99438
-1.99424
-1.99414
-1.99422
-1.99457
-1.99519
-1.99609
-1.99728
-1.99877
-2.00056
-2.00265
-2.00506
-2.0078
-2.01087
-2.01429
-2.01806
-2.0222
-2.02671
-2.03161
-2.03691
-2.04262
-2.04875
-2.05529
-2.06223
-2.06952
-2.0771
-2.08488
-2.09275
-2.1006
-2.10836
-2.11608
-2.12395
-2.13233
-2.14171
-2.15258
-2.1653
-2.18003
-2.19678
-2.21558
-2.23652
-2.25977
-2.28554
-2.31409
-2.34581
-2.38124
-2.06536
-2.06531
-2.0653
-2.06547
-2.06589
-2.06656
-2.0675
-2.06871
-2.07021
-2.072
-2.07409
-2.07648
-2.0792
-2.08224
-2.08562
-2.08936
-2.09346
-2.09794
-2.10282
-2.10812
-2.11385
-2.12004
-2.12669
-2.1338
-2.14134
-2.14928
-2.15758
-2.16615
-2.17491
-2.1838
-2.19279
-2.20196
-2.21151
-2.22178
-2.23315
-2.24594
-2.26041
-2.27666
-2.29477
-2.31483
-2.33697
-2.36141
-2.38836
-2.4181
-2.45105
-2.13674
-2.13675
-2.13684
-2.13709
-2.13757
-2.13829
-2.13927
-2.14051
-2.14202
-2.14381
-2.14589
-2.14827
-2.15095
-2.15396
-2.15731
-2.161
-2.16506
-2.16951
-2.17435
-2.17962
-2.18536
-2.19159
-2.19831
-2.20553
-2.21324
-2.22143
-2.2301
-2.23921
-2.2487
-2.25851
-2.26859
-2.27895
-2.28963
-2.30081
-2.31272
-2.32562
-2.33978
-2.35542
-2.3727
-2.39178
-2.4128
-2.43592
-2.46131
-2.48914
-2.51968
-2.2085
-2.20858
-2.20875
-2.20908
-2.20962
-2.21039
-2.2114
-2.21266
-2.21419
-2.21598
-2.21806
-2.22042
-2.22308
-2.22606
-2.22936
-2.23301
-2.23703
-2.24143
-2.24624
-2.25149
)
;

boundaryField
{
    leftWall
    {
        type            calculated;
        value           nonuniform List<scalar> 
44
(
452.175
405.142
356.859
307.7
258.019
207.984
157.413
106.119
53.727
12.7126
0.0740598
-0.117886
-0.175605
-0.233637
-0.292249
-0.351412
-0.411122
-0.471522
-0.53253
-0.594121
-0.656275
-0.71897
-0.782189
-0.845923
-0.910158
-0.974879
-1.04007
-1.1057
-1.17177
-1.23825
-1.30512
-1.37239
-1.44002
-1.50803
-1.57641
-1.64514
-1.71425
-1.78372
-1.85356
-1.92378
-1.99438
-2.06536
-2.13674
-2.2085
)
;
    }
    rightWall
    {
        type            calculated;
        value           nonuniform 0();
    }
    lowerWall
    {
        type            calculated;
        value           nonuniform List<scalar> 
44
(
475.718
474.651
474.495
475.746
478.524
482.638
487.603
493.296
499.779
506.929
514.686
523.005
531.846
541.167
550.927
561.084
571.597
582.423
593.522
604.852
616.376
628.055
639.853
651.733
663.665
675.615
687.556
699.457
711.293
723.032
734.641
746.077
757.27
768.217
778.779
788.898
798.305
806.488
814.145
821.415
826.843
830.569
832.96
834.202
)
;
    }
    atmosphere
    {
        type            calculated;
        value           nonuniform 0();
    }
    defaultFaces
    {
        type            empty;
    }
    procBoundary0to1
    {
        type            processor;
        value           nonuniform List<scalar> 
44
(
810.421
760.175
709.909
659.897
610.416
561.599
513.358
465.651
417.086
361.764
294.705
231.85
179.861
137.681
102.885
73.5589
48.8705
29.9296
18.9286
16.5266
16.5266
22.9977
23.219
23.3691
23.3378
23.3172
19.2139
9.83805
-9.0418
-27.1313
-32.8347
-22.5529
-7.0851
-2.15054
-1.89068
-1.94941
-2.04999
-2.13218
-2.2057
-2.2793
-2.35156
-2.42081
-2.48778
-2.55338
)
;
    }
    procBoundary0to2
    {
        type            processor;
        value           nonuniform List<scalar> 
46
(
-2.25722
-2.26345
-2.2702
-2.27745
-2.28524
-2.29357
-2.30245
-2.31187
-2.32181
-2.33223
-2.34307
-2.35428
-2.36585
-2.37782
-2.39028
-2.40342
-2.41748
-2.4327
-2.44932
-2.46753
-2.4875
-2.50935
-2.5332
-2.55916
-2.58733
-2.28066
-2.2808
-2.28104
-2.28144
-2.28204
-2.28286
-2.2839
-2.28519
-2.28673
-2.28853
-2.2906
-2.29295
-2.29559
-2.29853
-2.3018
-2.30542
-2.30939
-2.31376
-2.31853
-2.25722
-2.32375
)
;
    }
}


// ************************************************************************* //
