/*--------------------------------*- C++ -*----------------------------------*\
| =========                 |                                                 |
| \\      /  F ield         | OpenFOAM: The Open Source CFD Toolbox           |
|  \\    /   O peration     | Version:  5.0                                   |
|   \\  /    A nd           | Web:      www.OpenFOAM.org                      |
|    \\/     M anipulation  |                                                 |
\*---------------------------------------------------------------------------*/
FoamFile
{
    version     2.0;
    format      ascii;
    class       surfaceScalarField;
    location    "0.8";
    object      phi;
}
// * * * * * * * * * * * * * * * * * * * * * * * * * * * * * * * * * * * * * //

dimensions      [0 3 -1 0 0 0 0];

internalField   nonuniform List<scalar> 
3781
(
-2.01188e-06
2.01188e-06
-4.00103e-06
1.98916e-06
-5.20948e-06
1.20845e-06
-5.73115e-06
5.21667e-07
-5.87218e-06
1.41031e-07
-5.8787e-06
6.52211e-09
-5.89101e-06
1.23105e-08
-5.96895e-06
7.79367e-08
-6.13063e-06
1.61682e-07
-6.37568e-06
2.45044e-07
-6.69545e-06
3.19772e-07
-7.07649e-06
3.81042e-07
-7.50404e-06
4.27546e-07
-7.96412e-06
4.60079e-07
-8.44465e-06
4.80531e-07
-8.9357e-06
4.91057e-07
-9.42929e-06
4.93588e-07
-9.91887e-06
4.89578e-07
-1.0399e-05
4.80152e-07
-1.08653e-05
4.66259e-07
-1.13139e-05
4.48662e-07
-1.17418e-05
4.27853e-07
-1.21459e-05
4.04075e-07
-1.25233e-05
3.77467e-07
-1.28714e-05
3.48086e-07
-1.31873e-05
3.15887e-07
-1.34681e-05
2.80788e-07
-1.37107e-05
2.4265e-07
-1.3912e-05
2.01279e-07
-1.40683e-05
1.56256e-07
-1.4175e-05
1.06749e-07
-1.42258e-05
5.07347e-08
-1.42122e-05
-1.35832e-08
-1.4116e-05
-9.62151e-08
-1.39243e-05
-1.91622e-07
-1.36299e-05
-2.94448e-07
-1.32336e-05
-3.9635e-07
-1.27677e-05
-4.65804e-07
-1.21297e-05
-6.37998e-07
-1.11498e-05
-9.79966e-07
-9.93288e-06
-1.2169e-06
-8.52611e-06
-1.40677e-06
-6.8266e-06
-1.69952e-06
-2.12966e-06
-2.16046e-06
4.17234e-06
-3.36316e-06
3.19185e-06
-3.97234e-06
1.81763e-06
-4.303e-06
8.52325e-07
-4.53095e-06
3.68984e-07
-4.73285e-06
2.08423e-07
-4.95315e-06
2.32605e-07
-5.22261e-06
3.47397e-07
-5.55445e-06
4.93517e-07
-5.94845e-06
6.39052e-07
-6.39606e-06
7.67376e-07
-6.88578e-06
8.70768e-07
-7.40572e-06
9.47478e-07
-7.94472e-06
9.99083e-07
-8.49293e-06
1.02875e-06
-9.04201e-06
1.04014e-06
-9.58506e-06
1.03664e-06
-1.01164e-05
1.02089e-06
-1.06312e-05
9.94978e-07
-1.11256e-05
9.60621e-07
-1.1596e-05
9.19115e-07
-1.20394e-05
8.71256e-07
-1.24527e-05
8.17383e-07
-1.28328e-05
7.57526e-07
-1.31762e-05
6.91507e-07
-1.34792e-05
6.18915e-07
-1.37376e-05
5.39116e-07
-1.39462e-05
4.5131e-07
-1.40994e-05
3.54457e-07
-1.41902e-05
2.47063e-07
-1.42104e-05
1.26942e-07
-1.41506e-05
-9.03169e-09
-1.39998e-05
-1.6447e-07
-1.37505e-05
-3.45468e-07
-1.33898e-05
-5.52322e-07
-1.29037e-05
-7.80501e-07
-1.22803e-05
-1.0198e-06
-1.14811e-05
-1.26503e-06
-1.05188e-05
-1.60029e-06
-9.45868e-06
-2.04007e-06
-8.28901e-06
-2.38657e-06
-7.00784e-06
-2.68794e-06
-5.65408e-06
-3.05328e-06
-3.57788e-06
-1.70898e-06
5.88132e-06
-2.44057e-06
3.92344e-06
-2.89175e-06
2.26881e-06
-3.25865e-06
1.21922e-06
-3.59416e-06
7.04486e-07
-3.93098e-06
5.45252e-07
-4.29085e-06
5.92473e-07
-4.68682e-06
7.43363e-07
-5.12509e-06
9.3179e-07
-5.60472e-06
1.11868e-06
-6.11968e-06
1.28234e-06
-6.66175e-06
1.41284e-06
-7.22223e-06
1.50795e-06
-7.7926e-06
1.56945e-06
-8.365e-06
1.60114e-06
-8.93255e-06
1.60769e-06
-9.48944e-06
1.59354e-06
-1.00308e-05
1.56221e-06
-1.05523e-05
1.51655e-06
-1.10506e-05
1.45888e-06
-1.15224e-05
1.39089e-06
-1.19647e-05
1.31356e-06
-1.23745e-05
1.22721e-06
-1.27486e-05
1.13163e-06
-1.30833e-05
1.02624e-06
-1.33745e-05
9.10068e-07
-1.36171e-05
7.817e-07
-1.38052e-05
6.39432e-07
-1.39319e-05
4.81175e-07
-1.39891e-05
3.0423e-07
-1.39673e-05
1.05169e-07
-1.3856e-05
-1.20335e-07
-1.36439e-05
-3.76584e-07
-1.3321e-05
-6.68338e-07
-1.28768e-05
-9.96573e-07
-1.22996e-05
-1.35767e-06
-1.15758e-05
-1.74356e-06
-1.06856e-05
-2.15532e-06
-9.65918e-06
-2.62667e-06
-8.55834e-06
-3.1409e-06
-7.35735e-06
-3.58757e-06
-6.07521e-06
-3.97008e-06
-4.76105e-06
-4.36743e-06
-4.92833e-06
-1.17018e-06
7.0515e-06
-1.66216e-06
4.41542e-06
-2.039e-06
2.64565e-06
-2.43217e-06
1.6124e-06
-2.85165e-06
1.12396e-06
-3.29782e-06
9.91423e-07
-3.77139e-06
1.06605e-06
-4.27261e-06
1.24458e-06
-4.80086e-06
1.46004e-06
-5.35326e-06
1.67108e-06
-5.9248e-06
1.85387e-06
-6.50963e-06
1.99768e-06
-7.10182e-06
2.10014e-06
-7.69526e-06
2.16289e-06
-8.28392e-06
2.1898e-06
-8.86238e-06
2.18615e-06
-9.42598e-06
2.15714e-06
-9.97057e-06
2.1068e-06
-1.04925e-05
2.03849e-06
-1.09887e-05
1.95502e-06
-1.14561e-05
1.85835e-06
-1.18921e-05
1.74955e-06
-1.22937e-05
1.62878e-06
-1.26575e-05
1.49549e-06
-1.29799e-05
1.34863e-06
-1.32564e-05
1.18654e-06
-1.34816e-05
1.00689e-06
-1.36491e-05
8.06977e-07
-1.37516e-05
5.83628e-07
-1.37803e-05
3.3296e-07
-1.37255e-05
5.04012e-08
-1.35767e-05
-2.69149e-07
-1.33227e-05
-6.30605e-07
-1.29531e-05
-1.03792e-06
-1.24579e-05
-1.49179e-06
-1.18271e-05
-1.98844e-06
-1.10505e-05
-2.5202e-06
-1.01237e-05
-3.08216e-06
-9.07271e-06
-3.67762e-06
-7.93488e-06
-4.27873e-06
-6.70437e-06
-4.81808e-06
-5.39666e-06
-5.27779e-06
-4.05211e-06
-5.71198e-06
-6.25908e-06
-6.04767e-07
7.65627e-06
-9.52428e-07
4.76308e-06
-1.30733e-06
3.00055e-06
-1.74237e-06
2.04744e-06
-2.24301e-06
1.6246e-06
-2.78776e-06
1.53617e-06
-3.36128e-06
1.63957e-06
-3.95409e-06
1.83739e-06
-4.56041e-06
2.06636e-06
-5.17583e-06
2.2865e-06
-5.79592e-06
2.47396e-06
-6.41685e-06
2.61861e-06
-7.03517e-06
2.71847e-06
-7.64687e-06
2.77459e-06
-8.24745e-06
2.79038e-06
-8.83287e-06
2.77157e-06
-9.39954e-06
2.72381e-06
-9.94402e-06
2.65128e-06
-1.04631e-05
2.55761e-06
-1.09542e-05
2.44603e-06
-1.14145e-05
2.31866e-06
-1.18415e-05
2.17655e-06
-1.22323e-05
2.01965e-06
-1.25838e-05
1.84695e-06
-1.2892e-05
1.6569e-06
-1.31526e-05
1.44713e-06
-1.33601e-05
1.21432e-06
-1.35078e-05
9.54733e-07
-1.35884e-05
6.64181e-07
-1.35931e-05
3.3767e-07
-1.35123e-05
-3.03676e-08
-1.33358e-05
-4.45722e-07
-1.30527e-05
-9.13688e-07
-1.26527e-05
-1.43785e-06
-1.21262e-05
-2.01837e-06
-1.1464e-05
-2.65064e-06
-1.06591e-05
-3.32509e-06
-9.7117e-06
-4.02954e-06
-8.63994e-06
-4.74938e-06
-7.46867e-06
-5.44999e-06
-6.20954e-06
-6.07721e-06
-4.87988e-06
-6.60745e-06
-3.52446e-06
-7.06741e-06
-7.55184e-06
-6.23349e-08
7.7186e-06
-3.06975e-07
5.00772e-06
-6.78739e-07
3.37231e-06
-1.17489e-06
2.54358e-06
-1.76002e-06
2.20974e-06
-2.39747e-06
2.17362e-06
-3.06081e-06
2.30291e-06
-3.7337e-06
2.51027e-06
-4.40706e-06
2.73972e-06
-5.07566e-06
2.9551e-06
-5.73578e-06
3.13408e-06
-6.38574e-06
3.26857e-06
-7.02451e-06
3.35724e-06
-7.64983e-06
3.39991e-06
-8.25836e-06
3.39891e-06
-8.84725e-06
3.36045e-06
-9.41397e-06
3.29053e-06
-9.95559e-06
3.1929e-06
-1.04693e-05
3.07134e-06
-1.09528e-05
2.92946e-06
-1.14036e-05
2.76948e-06
-1.18194e-05
2.59238e-06
-1.21976e-05
2.3978e-06
-1.25348e-05
2.18419e-06
-1.28275e-05
1.94959e-06
-1.30713e-05
1.69092e-06
-1.32607e-05
1.40376e-06
-1.33894e-05
1.08343e-06
-1.34501e-05
7.24863e-07
-1.34345e-05
3.2203e-07
-1.33333e-05
-1.31531e-07
-1.31368e-05
-6.4226e-07
-1.28346e-05
-1.21587e-06
-1.24165e-05
-1.85589e-06
-1.18728e-05
-2.56211e-06
-1.11944e-05
-3.329e-06
-1.0375e-05
-4.14456e-06
-9.41426e-06
-4.99025e-06
-8.32402e-06
-5.83962e-06
-7.12347e-06
-6.65055e-06
-5.83147e-06
-7.36921e-06
-4.47985e-06
-7.95907e-06
-3.12831e-06
-8.41894e-06
-8.80672e-06
3.99489e-07
7.31911e-06
2.29411e-07
5.17779e-06
-1.71427e-07
3.77315e-06
-7.39672e-07
3.11183e-06
-1.41112e-06
2.88119e-06
-2.13567e-06
2.89816e-06
-2.879e-06
3.04624e-06
-3.62022e-06
3.25149e-06
-4.34866e-06
3.46816e-06
-5.05931e-06
3.66575e-06
-5.74962e-06
3.82439e-06
-6.42038e-06
3.93933e-06
-7.07308e-06
4.00994e-06
-7.70677e-06
4.0336e-06
-8.31875e-06
4.0109e-06
-8.9073e-06
3.949e-06
-9.47086e-06
3.85409e-06
-1.00068e-05
3.72879e-06
-1.05124e-05
3.57696e-06
-1.09857e-05
3.40276e-06
-1.14245e-05
3.20835e-06
-1.18269e-05
2.99469e-06
-1.21901e-05
2.76106e-06
-1.25112e-05
2.50523e-06
-1.27866e-05
2.22501e-06
-1.30124e-05
1.91673e-06
-1.31833e-05
1.57467e-06
-1.32933e-05
1.19339e-06
-1.33355e-05
7.67129e-07
-1.33024e-05
2.88903e-07
-1.31853e-05
-2.48576e-07
-1.29752e-05
-8.52424e-07
-1.26621e-05
-1.52897e-06
-1.22359e-05
-2.28208e-06
-1.16863e-05
-3.11167e-06
-1.10035e-05
-4.01182e-06
-1.01794e-05
-4.96871e-06
-9.21059e-06
-5.95902e-06
-8.10276e-06
-6.94746e-06
-6.8706e-06
-7.8827e-06
-5.5381e-06
-8.70171e-06
-4.14924e-06
-9.34793e-06
-2.78029e-06
-9.78789e-06
-1.00378e-05
7.29211e-07
6.5899e-06
6.51409e-07
5.2556e-06
2.03173e-07
4.22139e-06
-4.46057e-07
3.76106e-06
-1.2047e-06
3.63984e-06
-2.01151e-06
3.70497e-06
-2.82544e-06
3.86016e-06
-3.62258e-06
4.04864e-06
-4.39271e-06
4.23829e-06
-5.13262e-06
4.40567e-06
-5.8415e-06
4.53327e-06
-6.52346e-06
4.62129e-06
-7.18255e-06
4.66903e-06
-7.8184e-06
4.66944e-06
-8.42839e-06
4.62088e-06
-9.01208e-06
4.53269e-06
-9.56881e-06
4.41082e-06
-1.00957e-05
4.25567e-06
-1.05901e-05
4.07136e-06
-1.10503e-05
3.86301e-06
-1.14744e-05
3.63243e-06
-1.18605e-05
3.38079e-06
-1.22064e-05
3.10693e-06
-1.25088e-05
2.80764e-06
-1.27648e-05
2.48102e-06
-1.2971e-05
2.12294e-06
-1.31224e-05
1.72602e-06
-1.32133e-05
1.2843e-06
-1.32379e-05
7.91722e-07
-1.31893e-05
2.40295e-07
-1.30598e-05
-3.78018e-07
-1.28412e-05
-1.07106e-06
-1.25241e-05
-1.84609e-06
-1.20983e-05
-2.70781e-06
-1.1553e-05
-3.65703e-06
-1.08762e-05
-4.68858e-06
-1.00566e-05
-5.78834e-06
-9.08532e-06
-6.93028e-06
-7.96023e-06
-8.07254e-06
-6.68955e-06
-9.15338e-06
-5.29769e-06
-1.00936e-05
-3.83708e-06
-1.08085e-05
-2.40193e-06
-1.1223e-05
-1.12928e-05
9.1457e-07
5.67533e-06
9.1623e-07
5.25393e-06
4.36557e-07
4.70106e-06
-2.92942e-07
4.49056e-06
-1.14231e-06
4.4892e-06
-2.03061e-06
4.59328e-06
-2.90688e-06
4.73643e-06
-3.74639e-06
4.88815e-06
-4.54261e-06
5.03451e-06
-5.29791e-06
5.16097e-06
-6.0124e-06
5.24776e-06
-6.69591e-06
5.3048e-06
-7.35333e-06
5.32645e-06
-7.98387e-06
5.29998e-06
-8.58494e-06
5.22195e-06
-9.15812e-06
5.10588e-06
-9.70368e-06
4.95638e-06
-1.02176e-05
4.76958e-06
-1.06971e-05
4.55085e-06
-1.11409e-05
4.3068e-06
-1.15468e-05
4.03839e-06
-1.19136e-05
3.74755e-06
-1.22392e-05
3.43251e-06
-1.252e-05
3.08848e-06
-1.27539e-05
2.71492e-06
-1.29385e-05
2.30746e-06
-1.30686e-05
1.85619e-06
-1.31395e-05
1.35515e-06
-1.31463e-05
7.98589e-07
-1.30833e-05
1.773e-07
-1.2944e-05
-5.17405e-07
-1.27209e-05
-1.29411e-06
-1.24056e-05
-2.1614e-06
-1.19881e-05
-3.12532e-06
-1.14566e-05
-4.18857e-06
-1.07967e-05
-5.34842e-06
-9.99236e-06
-6.5927e-06
-9.02693e-06
-7.89572e-06
-7.88729e-06
-9.21218e-06
-6.57017e-06
-1.04705e-05
-5.09223e-06
-1.15715e-05
-3.50531e-06
-1.23955e-05
-1.9143e-06
-1.2814e-05
-1.26957e-05
8.06796e-07
4.86853e-06
9.82748e-07
5.07798e-06
5.15122e-07
5.16869e-06
-2.92344e-07
5.29802e-06
-1.23257e-06
5.42943e-06
-2.19551e-06
5.55623e-06
-3.11591e-06
5.65682e-06
-3.97482e-06
5.74707e-06
-4.77731e-06
5.837e-06
-5.53391e-06
5.91757e-06
-6.25487e-06
5.96871e-06
-6.93555e-06
5.98548e-06
-7.58263e-06
5.97353e-06
-8.19926e-06
5.91661e-06
-8.7831e-06
5.80579e-06
-9.33956e-06
5.66233e-06
-9.8698e-06
5.48663e-06
-1.03658e-05
5.26556e-06
-1.08254e-05
5.01052e-06
-1.12486e-05
4.72992e-06
-1.16324e-05
4.42222e-06
-1.19762e-05
4.09133e-06
-1.22782e-05
3.73454e-06
-1.2534e-05
3.34426e-06
-1.27425e-05
2.92347e-06
-1.29028e-05
2.46777e-06
-1.30096e-05
1.96293e-06
-1.30585e-05
1.40411e-06
-1.30468e-05
7.86842e-07
-1.29695e-05
1.00042e-07
-1.28215e-05
-6.65379e-07
-1.25971e-05
-1.5186e-06
-1.22884e-05
-2.47004e-06
-1.18862e-05
-3.52749e-06
-1.13782e-05
-4.69657e-06
-1.07476e-05
-5.97906e-06
-9.97262e-06
-7.36768e-06
-9.02703e-06
-8.84131e-06
-7.88295e-06
-1.03563e-05
-6.51864e-06
-1.18348e-05
-4.93127e-06
-1.31589e-05
-3.15397e-06
-1.41728e-05
-1.27009e-06
-1.46979e-05
-1.45279e-05
1.71678e-08
4.85137e-06
8.52527e-07
4.24262e-06
4.26741e-07
5.59447e-06
-4.67468e-07
6.19223e-06
-1.51259e-06
6.47455e-06
-2.55999e-06
6.60363e-06
-3.53159e-06
6.62842e-06
-4.41452e-06
6.63e-06
-5.22044e-06
6.64292e-06
-5.96943e-06
6.66655e-06
-6.70578e-06
6.70507e-06
-7.37854e-06
6.65824e-06
-7.99796e-06
6.59295e-06
-8.59095e-06
6.5096e-06
-9.1655e-06
6.38034e-06
-9.72008e-06
6.21691e-06
-1.02403e-05
6.00686e-06
-1.07208e-05
5.74602e-06
-1.11618e-05
5.45154e-06
-1.15668e-05
5.13489e-06
-1.19299e-05
4.7853e-06
-1.22515e-05
4.41298e-06
-1.25308e-05
4.01385e-06
-1.27611e-05
3.5745e-06
-1.29433e-05
3.10571e-06
-1.30787e-05
2.60319e-06
-1.31604e-05
2.04461e-06
-1.31851e-05
1.4288e-06
-1.31524e-05
7.54108e-07
-1.30582e-05
5.88612e-09
-1.28989e-05
-8.2463e-07
-1.26708e-05
-1.74678e-06
-1.23672e-05
-2.77364e-06
-1.19799e-05
-3.91472e-06
-1.1497e-05
-5.17949e-06
-1.08994e-05
-6.57665e-06
-1.01599e-05
-8.10719e-06
-9.24104e-06
-9.7602e-06
-8.09629e-06
-1.1501e-05
-6.67851e-06
-1.32526e-05
-4.95469e-06
-1.48827e-05
-2.92305e-06
-1.62044e-05
-6.11606e-07
-1.70094e-05
-1.71017e-05
8.83842e-07
3.96752e-06
4.62522e-07
4.66393e-06
6.08578e-08
5.99613e-06
-6.70222e-07
6.9233e-06
-1.60104e-06
7.40537e-06
-2.58951e-06
7.5921e-06
-3.56006e-06
7.59897e-06
-4.46139e-06
7.53133e-06
-5.27919e-06
7.46072e-06
-6.06902e-06
7.45638e-06
-6.9645e-06
7.60055e-06
-7.76381e-06
7.45755e-06
-8.39441e-06
7.22355e-06
-8.96068e-06
7.07587e-06
-9.51787e-06
6.93754e-06
-1.00588e-05
6.75788e-06
-1.05367e-05
6.48473e-06
-1.09806e-05
6.18991e-06
-1.14023e-05
5.87325e-06
-1.17834e-05
5.51598e-06
-1.2115e-05
5.11687e-06
-1.24048e-05
4.70283e-06
-1.26538e-05
4.26285e-06
-1.285e-05
3.77064e-06
-1.29981e-05
3.25383e-06
-1.31033e-05
2.70839e-06
-1.31546e-05
2.0959e-06
-1.31503e-05
1.42448e-06
-1.30937e-05
6.97578e-07
-1.2981e-05
-1.0681e-07
-1.28105e-05
-9.95181e-07
-1.2581e-05
-1.97624e-06
-1.22876e-05
-3.06702e-06
-1.19245e-05
-4.27784e-06
-1.14817e-05
-5.62228e-06
-1.09399e-05
-7.11844e-06
-1.02685e-05
-8.77859e-06
-9.42031e-06
-1.06084e-05
-8.32933e-06
-1.2592e-05
-6.91997e-06
-1.4662e-05
-5.12716e-06
-1.66755e-05
-2.92578e-06
-1.84058e-05
-3.33831e-07
-1.96013e-05
-2.00782e-05
8.29683e-08
3.88455e-06
6.15737e-08
4.68531e-06
-4.12283e-08
6.09892e-06
-2.29369e-07
7.11144e-06
-5.79834e-07
7.75584e-06
-1.08883e-06
8.10111e-06
-1.72724e-06
8.23739e-06
-2.46913e-06
8.27323e-06
-3.34002e-06
8.33162e-06
-4.47308e-06
8.58944e-06
-6.02841e-06
9.15588e-06
-7.33026e-06
8.75941e-06
-8.26249e-06
8.15578e-06
-8.92108e-06
7.73447e-06
-9.57011e-06
7.58656e-06
-1.03043e-05
7.49205e-06
-1.08227e-05
7.00319e-06
-1.12517e-05
6.61885e-06
-1.16472e-05
6.26882e-06
-1.19781e-05
5.8468e-06
-1.22566e-05
5.39536e-06
-1.25155e-05
4.96176e-06
-1.27334e-05
4.48074e-06
-1.28843e-05
3.92154e-06
-1.2991e-05
3.36058e-06
-1.30631e-05
2.78043e-06
-1.30787e-05
2.11154e-06
-1.304e-05
1.38574e-06
-1.29567e-05
6.14276e-07
-1.28223e-05
-2.41171e-07
-1.26378e-05
-1.17972e-06
-1.24059e-05
-2.20811e-06
-1.21229e-05
-3.35004e-06
-1.17868e-05
-4.61391e-06
-1.13924e-05
-6.01664e-06
-1.09228e-05
-7.58812e-06
-1.03482e-05
-9.35315e-06
-9.61614e-06
-1.13405e-05
-8.6428e-06
-1.35653e-05
-7.32267e-06
-1.59821e-05
-5.55714e-06
-1.8441e-05
-3.31372e-06
-2.06492e-05
-6.53858e-07
-2.22612e-05
-2.3063e-05
-1.83081e-07
4.06762e-06
-3.74268e-07
4.87648e-06
-2.91479e-07
6.01612e-06
-1.55067e-07
6.97503e-06
-9.68378e-08
7.69762e-06
-1.81683e-07
8.18597e-06
-4.2917e-07
8.48489e-06
-8.37183e-07
8.68126e-06
-1.39627e-06
8.89071e-06
-2.05582e-06
9.249e-06
-2.63095e-06
9.73102e-06
-3.52748e-06
9.65595e-06
-4.63128e-06
9.25959e-06
-5.91917e-06
9.02237e-06
-7.56382e-06
9.23122e-06
-9.27215e-06
9.20038e-06
-1.04687e-05
8.19971e-06
-1.11052e-05
7.25542e-06
-1.16393e-05
6.80295e-06
-1.20987e-05
6.30617e-06
-1.23806e-05
5.67729e-06
-1.26027e-05
5.18385e-06
-1.27518e-05
4.62983e-06
-1.28318e-05
4.0015e-06
-1.28989e-05
3.4277e-06
-1.29372e-05
2.81875e-06
-1.29044e-05
2.07869e-06
-1.28242e-05
1.30554e-06
-1.27128e-05
5.0289e-07
-1.2553e-05
-4.0099e-07
-1.23499e-05
-1.38284e-06
-1.21128e-05
-2.44517e-06
-1.18371e-05
-3.62576e-06
-1.15265e-05
-4.92454e-06
-1.11836e-05
-6.35952e-06
-1.07968e-05
-7.9749e-06
-1.03448e-05
-9.80518e-06
-9.77791e-06
-1.19073e-05
-8.99934e-06
-1.43439e-05
-7.87158e-06
-1.71099e-05
-6.25216e-06
-2.00604e-05
-4.10155e-06
-2.27998e-05
-1.55771e-06
-2.4805e-05
-2.57842e-05
-3.72555e-07
4.44016e-06
-5.13097e-07
5.017e-06
-3.60836e-07
5.86385e-06
-8.07887e-08
6.69499e-06
2.01204e-07
7.41564e-06
4.02004e-07
7.98518e-06
4.70961e-07
8.41594e-06
3.9145e-07
8.76077e-06
1.82311e-07
9.09986e-06
-8.1608e-08
9.51293e-06
-3.20089e-07
9.96952e-06
-8.02893e-07
1.01388e-05
-1.58194e-06
1.00387e-05
-2.54599e-06
9.98643e-06
-3.50474e-06
1.019e-05
-4.5251e-06
1.02208e-05
-5.87924e-06
9.55386e-06
-7.54295e-06
8.91914e-06
-9.56439e-06
8.82439e-06
-1.11865e-05
7.92826e-06
-1.20591e-05
6.54989e-06
-1.24005e-05
5.52527e-06
-1.26617e-05
4.89104e-06
-1.27436e-05
4.08343e-06
-1.27604e-05
3.44448e-06
-1.27097e-05
2.76804e-06
-1.25983e-05
1.96729e-06
-1.24821e-05
1.1894e-06
-1.23434e-05
3.6412e-07
-1.21443e-05
-6.00034e-07
-1.19146e-05
-1.61261e-06
-1.16694e-05
-2.69029e-06
-1.13937e-05
-3.90145e-06
-1.10999e-05
-5.2184e-06
-1.08026e-05
-6.65684e-06
-1.04967e-05
-8.28073e-06
-1.01795e-05
-1.01224e-05
-9.81937e-06
-1.22675e-05
-9.31775e-06
-1.48455e-05
-8.50284e-06
-1.79248e-05
-7.16222e-06
-2.14011e-05
-5.22898e-06
-2.47331e-05
-2.93128e-06
-2.71027e-05
-2.80893e-05
-3.5766e-07
4.79781e-06
-4.12145e-07
5.07147e-06
-2.14176e-07
5.66588e-06
1.32124e-07
6.34869e-06
5.28942e-07
7.01883e-06
8.96533e-07
7.6176e-06
1.17916e-06
8.13333e-06
1.35007e-06
8.58987e-06
1.41666e-06
9.03328e-06
1.4231e-06
9.5065e-06
1.40833e-06
9.98429e-06
1.24513e-06
1.0302e-05
8.48e-07
1.04358e-05
2.81824e-07
1.05526e-05
-3.00651e-07
1.07725e-05
-9.59153e-07
1.08793e-05
-1.97394e-06
1.05687e-05
-3.22202e-06
1.01672e-05
-4.38193e-06
9.98431e-06
-5.74809e-06
9.29441e-06
-7.40052e-06
8.20232e-06
-9.35658e-06
7.48133e-06
-1.114e-05
6.67445e-06
-1.22168e-05
5.16026e-06
-1.23976e-05
3.62527e-06
-1.2375e-05
2.74547e-06
-1.22539e-05
1.84611e-06
-1.20855e-05
1.02107e-06
-1.1849e-05
1.2755e-07
-1.15729e-05
-8.76153e-07
-1.13198e-05
-1.86568e-06
-1.1062e-05
-2.94811e-06
-1.07659e-05
-4.19752e-06
-1.0468e-05
-5.51632e-06
-1.01955e-05
-6.9293e-06
-9.94562e-06
-8.53064e-06
-9.74331e-06
-1.03247e-05
-9.60024e-06
-1.24105e-05
-9.44972e-06
-1.4996e-05
-9.10155e-06
-1.82729e-05
-8.19971e-06
-2.23029e-05
-6.60628e-06
-2.63265e-05
-4.65441e-06
-2.90546e-05
-2.98842e-05
-2.46205e-07
5.044e-06
-2.13301e-07
5.03855e-06
3.72983e-08
5.41528e-06
4.27667e-07
5.95833e-06
8.89302e-07
6.5572e-06
1.35679e-06
7.15012e-06
1.77974e-06
7.7104e-06
2.12912e-06
8.24051e-06
2.40165e-06
8.76076e-06
2.61825e-06
9.28993e-06
2.794e-06
9.80855e-06
2.86523e-06
1.02308e-05
2.76781e-06
1.05332e-05
2.52659e-06
1.07939e-05
2.2278e-06
1.10713e-05
1.852e-06
1.12551e-05
1.24304e-06
1.11776e-05
4.35889e-07
1.09744e-05
-3.79792e-07
1.08e-05
-1.41502e-06
1.03296e-05
-2.75055e-06
9.53784e-06
-4.10437e-06
8.83515e-06
-5.44569e-06
8.01576e-06
-6.92196e-06
6.63653e-06
-8.62953e-06
5.33284e-06
-1.0309e-05
4.4249e-06
-1.14445e-05
2.98165e-06
-1.15338e-05
1.1104e-06
-1.12726e-05
-1.33741e-07
-1.09743e-05
-1.17438e-06
-1.06916e-05
-2.14845e-06
-1.03486e-05
-3.29102e-06
-9.97502e-06
-4.57114e-06
-9.63428e-06
-5.85707e-06
-9.3566e-06
-7.20699e-06
-9.10912e-06
-8.77812e-06
-8.95117e-06
-1.04827e-05
-8.95871e-06
-1.2403e-05
-9.17669e-06
-1.4778e-05
-9.51505e-06
-1.79346e-05
-9.2961e-06
-2.25218e-05
-8.18037e-06
-2.74422e-05
-6.67592e-06
-3.0559e-05
-3.11044e-05
-1.0297e-07
5.14696e-06
2.56582e-08
4.90992e-06
3.27397e-07
5.11354e-06
7.55797e-07
5.52993e-06
1.25944e-06
6.05357e-06
1.7895e-06
6.62008e-06
2.30485e-06
7.19506e-06
2.77835e-06
7.76703e-06
3.20034e-06
8.33878e-06
3.57652e-06
8.91376e-06
3.90926e-06
9.47582e-06
4.16175e-06
9.97828e-06
4.29368e-06
1.04013e-05
4.3112e-06
1.07763e-05
4.2566e-06
1.11259e-05
4.12149e-06
1.13902e-05
3.82102e-06
1.14781e-05
3.35476e-06
1.14406e-05
2.81251e-06
1.13422e-05
2.11009e-06
1.10321e-05
1.17443e-06
1.04735e-05
1.52688e-07
9.85689e-06
-9.31966e-07
9.10041e-06
-2.26161e-06
7.96616e-06
-3.68633e-06
6.75755e-06
-4.96324e-06
5.7018e-06
-6.15101e-06
4.16942e-06
-7.42337e-06
2.38274e-06
-8.58962e-06
1.03251e-06
-9.50152e-06
-2.62479e-07
-9.83965e-06
-1.81032e-06
-9.56026e-06
-3.57041e-06
-9.15601e-06
-4.97539e-06
-8.72787e-06
-6.28521e-06
-8.40975e-06
-7.52511e-06
-8.08035e-06
-9.10752e-06
-7.87183e-06
-1.06912e-05
-7.92679e-06
-1.2348e-05
-8.5159e-06
-1.41889e-05
-1.00693e-05
-1.63812e-05
-1.08228e-05
-2.17683e-05
-1.01469e-05
-2.81181e-05
-9.12042e-06
-3.15855e-05
-3.17508e-05
5.10395e-08
5.09592e-06
2.71789e-07
4.68917e-06
6.30161e-07
4.75518e-06
1.09223e-06
5.06787e-06
1.6254e-06
5.52041e-06
2.19518e-06
6.05032e-06
2.77018e-06
6.62007e-06
3.32708e-06
7.21014e-06
3.85355e-06
7.81232e-06
4.34658e-06
8.42074e-06
4.8018e-06
9.02061e-06
5.19632e-06
9.58378e-06
5.50426e-06
1.00934e-05
5.72339e-06
1.05572e-05
5.87032e-06
1.0979e-05
5.93718e-06
1.13233e-05
5.87688e-06
1.15384e-05
5.68098e-06
1.16365e-05
5.38627e-06
1.16369e-05
4.953e-06
1.14653e-05
4.33207e-06
1.10944e-05
3.5877e-06
1.06013e-05
2.74018e-06
9.94793e-06
1.69105e-06
9.01528e-06
5.05573e-07
7.94301e-06
-6.41395e-07
6.84876e-06
-1.89507e-06
5.42309e-06
-3.276e-06
3.76366e-06
-4.56631e-06
2.32281e-06
-5.68241e-06
8.53616e-07
-6.58208e-06
-9.10655e-07
-7.36761e-06
-2.78489e-06
-7.86572e-06
-4.47729e-06
-7.96599e-06
-6.18494e-06
-7.5843e-06
-7.90679e-06
-7.16839e-06
-9.52343e-06
-6.82542e-06
-1.10341e-05
-6.66096e-06
-1.25125e-05
-7.46839e-06
-1.33815e-05
-1.17852e-05
-1.20644e-05
-1.42327e-05
-1.93208e-05
-1.31444e-05
-2.92064e-05
-1.23199e-05
-3.24101e-05
-3.19593e-05
1.99303e-07
4.89661e-06
5.12185e-07
4.37629e-06
9.25213e-07
4.34215e-06
1.41918e-06
4.57392e-06
1.97502e-06
4.96458e-06
2.57033e-06
5.45502e-06
3.18266e-06
6.00776e-06
3.79339e-06
6.59942e-06
4.39007e-06
7.21564e-06
4.96561e-06
7.8452e-06
5.51258e-06
8.47365e-06
6.01525e-06
9.08111e-06
6.45598e-06
9.65267e-06
6.82847e-06
1.01847e-05
7.13569e-06
1.06717e-05
7.36911e-06
1.10899e-05
7.5006e-06
1.14069e-05
7.51933e-06
1.16178e-05
7.43472e-06
1.17215e-05
7.22229e-06
1.16778e-05
6.85225e-06
1.14645e-05
6.34724e-06
1.11063e-05
5.71418e-06
1.0581e-05
4.89874e-06
9.83071e-06
3.92499e-06
8.91675e-06
2.88295e-06
7.89079e-06
1.69342e-06
6.6126e-06
3.17586e-07
5.13949e-06
-1.07411e-06
3.7145e-06
-2.43661e-06
2.21611e-06
-3.84395e-06
4.96668e-07
-5.33768e-06
-1.29116e-06
-6.88531e-06
-2.92966e-06
-8.58935e-06
-4.4809e-06
-1.06126e-05
-5.88351e-06
-1.32275e-05
-6.9086e-06
-1.69292e-05
-7.33246e-06
-2.23591e-05
-7.0826e-06
-2.94119e-05
-6.32864e-06
-3.38834e-05
-7.59299e-06
-2.26184e-05
-3.05857e-05
-1.76424e-05
-3.41823e-05
-1.64212e-05
-3.36313e-05
-3.18866e-05
3.32077e-07
4.56453e-06
7.32247e-07
3.97612e-06
1.19778e-06
3.87662e-06
1.72186e-06
4.04985e-06
2.29626e-06
4.39019e-06
2.90825e-06
4.84303e-06
3.54307e-06
5.37294e-06
4.18688e-06
5.95561e-06
4.82868e-06
6.57384e-06
5.46019e-06
7.2137e-06
6.07306e-06
7.86079e-06
6.65527e-06
8.49891e-06
7.19369e-06
9.11425e-06
7.68032e-06
9.69809e-06
8.11142e-06
1.02406e-05
8.47779e-06
1.07235e-05
8.76066e-06
1.1124e-05
8.94792e-06
1.14306e-05
9.03599e-06
1.16335e-05
9.00659e-06
1.17072e-05
8.83838e-06
1.16327e-05
8.53293e-06
1.14117e-05
8.08551e-06
1.10284e-05
7.46352e-06
1.04527e-05
6.67164e-06
9.70862e-06
5.74523e-06
8.81718e-06
4.63691e-06
7.72092e-06
3.3174e-06
6.45899e-06
1.87794e-06
5.15395e-06
3.31482e-07
3.76255e-06
-1.40728e-06
2.23542e-06
-3.39214e-06
6.93688e-07
-5.62934e-06
-6.92474e-07
-8.22914e-06
-1.8811e-06
-1.13414e-05
-2.77127e-06
-1.51076e-05
-3.14244e-06
-1.96854e-05
-2.75462e-06
-2.48976e-05
-1.87044e-06
-2.9064e-05
-2.1622e-06
-2.7295e-05
-9.36196e-06
-2.39493e-05
-3.39314e-05
-2.15736e-05
-3.65581e-05
-2.09373e-05
-3.42676e-05
-2.14068e-05
-3.14171e-05
-2.74826e-05
4.45446e-07
4.11909e-06
9.2393e-07
3.49765e-06
1.43733e-06
3.36323e-06
1.9889e-06
3.49828e-06
2.57876e-06
3.80034e-06
3.2017e-06
4.2201e-06
3.84923e-06
4.72541e-06
4.51189e-06
5.29295e-06
5.18086e-06
5.90489e-06
5.84826e-06
6.54631e-06
6.50602e-06
7.20303e-06
7.14428e-06
7.86066e-06
7.75246e-06
8.50607e-06
8.32209e-06
9.12846e-06
8.84637e-06
9.71637e-06
9.31567e-06
1.02542e-05
9.71552e-06
1.07242e-05
1.00334e-05
1.11127e-05
1.02599e-05
1.1407e-05
1.0379e-05
1.1588e-05
1.03726e-05
1.16391e-05
1.02315e-05
1.15528e-05
9.94397e-06
1.13159e-05
9.48573e-06
1.09109e-05
8.84946e-06
1.03449e-05
8.04016e-06
9.62648e-06
7.02495e-06
8.73612e-06
5.78198e-06
7.70194e-06
4.34507e-06
6.59085e-06
2.70416e-06
5.40346e-06
7.91543e-07
4.14802e-06
-1.4414e-06
2.92662e-06
-4.01019e-06
1.8763e-06
-6.97501e-06
1.08372e-06
-1.04055e-05
6.59191e-07
-1.42884e-05
7.40431e-07
-1.83929e-05
1.34987e-06
-2.21137e-05
1.85043e-06
-2.42185e-05
-5.74153e-08
-2.38097e-05
-9.77077e-06
-2.54689e-05
-3.22722e-05
-2.50208e-05
-3.70062e-05
-2.5331e-05
-3.39574e-05
-2.63197e-05
-3.04284e-05
-2.59386e-05
5.37619e-07
3.58148e-06
1.08255e-06
2.95273e-06
1.63704e-06
2.80875e-06
2.21238e-06
2.92294e-06
2.81479e-06
3.19794e-06
3.44465e-06
3.59024e-06
4.09835e-06
4.0717e-06
4.77017e-06
4.62114e-06
5.45362e-06
5.22145e-06
6.14201e-06
5.85792e-06
6.82815e-06
6.5169e-06
7.50369e-06
7.18512e-06
8.15968e-06
7.85009e-06
8.78775e-06
8.5004e-06
9.37991e-06
9.12422e-06
9.92641e-06
9.70773e-06
1.04148e-05
1.02358e-05
1.08325e-05
1.06949e-05
1.11677e-05
1.10718e-05
1.14052e-05
1.13506e-05
1.15277e-05
1.15166e-05
1.1521e-05
1.15594e-05
1.13694e-05
1.14676e-05
1.10511e-05
1.12292e-05
1.05512e-05
1.08447e-05
9.85929e-06
1.03184e-05
8.94814e-06
9.64726e-06
7.79668e-06
8.8534e-06
6.40697e-06
7.98054e-06
4.7589e-06
7.05151e-06
2.80467e-06
6.10224e-06
5.09354e-07
5.22194e-06
-2.13812e-06
4.52377e-06
-5.15369e-06
4.09928e-06
-8.52566e-06
4.03115e-06
-1.21383e-05
4.35302e-06
-1.56622e-05
4.87385e-06
-1.85557e-05
4.74391e-06
-2.03394e-05
1.72627e-06
-2.17589e-05
-8.35129e-06
-2.61251e-05
-2.7906e-05
-2.77681e-05
-3.53632e-05
-2.90468e-05
-3.26787e-05
-3.06076e-05
-2.88676e-05
-2.40754e-05
6.08948e-07
2.97253e-06
1.20599e-06
2.3557e-06
1.79324e-06
2.22151e-06
2.38758e-06
2.3286e-06
2.99938e-06
2.58614e-06
3.63294e-06
2.95667e-06
4.28826e-06
3.41639e-06
4.9626e-06
3.94681e-06
5.65165e-06
4.53241e-06
6.35017e-06
5.15941e-06
7.05206e-06
5.81502e-06
7.75027e-06
6.48692e-06
8.437e-06
7.16337e-06
9.10432e-06
7.83309e-06
9.74396e-06
8.48459e-06
1.03463e-05
9.10534e-06
1.09001e-05
9.6821e-06
1.13929e-05
1.02021e-05
1.1812e-05
1.06527e-05
1.21424e-05
1.10202e-05
1.23674e-05
1.12916e-05
1.24705e-05
1.14563e-05
1.24337e-05
1.15043e-05
1.2236e-05
1.14269e-05
1.18582e-05
1.12225e-05
1.12824e-05
1.08942e-05
1.04835e-05
1.04462e-05
9.43915e-06
9.89773e-06
8.13668e-06
9.283e-06
6.55378e-06
8.6344e-06
4.65772e-06
7.9983e-06
2.42721e-06
7.45244e-06
-1.38337e-07
7.08931e-06
-3.02515e-06
6.98609e-06
-6.18131e-06
7.1873e-06
-9.4705e-06
7.6422e-06
-1.26368e-05
8.04018e-06
-1.53769e-05
7.48403e-06
-1.76939e-05
4.04322e-06
-2.06348e-05
-5.41037e-06
-2.64369e-05
-2.21038e-05
-2.96697e-05
-3.21304e-05
-3.1729e-05
-3.06194e-05
-3.36991e-05
-2.68975e-05
-2.18502e-05
6.59651e-07
2.31289e-06
1.29395e-06
1.72142e-06
1.90475e-06
1.61071e-06
2.51257e-06
1.72079e-06
3.13025e-06
1.96846e-06
3.76461e-06
2.32232e-06
4.41813e-06
2.76288e-06
5.09032e-06
3.27463e-06
5.77871e-06
3.84402e-06
6.47949e-06
4.45864e-06
7.18771e-06
5.10681e-06
7.89742e-06
5.77723e-06
8.60182e-06
6.45897e-06
9.29356e-06
7.14135e-06
9.96459e-06
7.81356e-06
1.06057e-05
8.46424e-06
1.12062e-05
9.08161e-06
1.17543e-05
9.65404e-06
1.2237e-05
1.01699e-05
1.26398e-05
1.06174e-05
1.29463e-05
1.09851e-05
1.31393e-05
1.12634e-05
1.31999e-05
1.14437e-05
1.31072e-05
1.15195e-05
1.28404e-05
1.14893e-05
1.23785e-05
1.13562e-05
1.16972e-05
1.11274e-05
1.07739e-05
1.0821e-05
9.59035e-06
1.04666e-05
8.12569e-06
1.00991e-05
6.35785e-06
9.76613e-06
4.27604e-06
9.53424e-06
1.8883e-06
9.47704e-06
-7.77627e-07
9.65201e-06
-3.66225e-06
1.00719e-05
-6.65975e-06
1.06397e-05
-9.63427e-06
1.10147e-05
-1.25318e-05
1.03816e-05
-1.5674e-05
7.18539e-06
-2.01568e-05
-9.27547e-07
-2.68833e-05
-1.53774e-05
-3.07775e-05
-2.82362e-05
-3.33031e-05
-2.80938e-05
-3.54972e-05
-2.47033e-05
-1.96249e-05
6.9084e-07
1.62206e-06
1.34762e-06
1.06464e-06
1.97251e-06
9.85829e-07
2.58782e-06
1.10548e-06
3.20754e-06
1.34874e-06
3.83982e-06
1.69005e-06
4.48869e-06
2.11401e-06
5.15527e-06
2.60806e-06
5.83852e-06
3.16077e-06
6.53586e-06
3.76131e-06
7.24343e-06
4.39925e-06
7.95627e-06
5.0644e-06
8.66847e-06
5.74677e-06
9.37333e-06
6.4365e-06
1.00633e-05
7.12362e-06
1.07296e-05
7.79793e-06
1.13623e-05
8.44895e-06
1.195e-05
9.06628e-06
1.24804e-05
9.63958e-06
1.29391e-05
1.01586e-05
1.33105e-05
1.06137e-05
1.35774e-05
1.09965e-05
1.37211e-05
1.13e-05
1.37212e-05
1.15194e-05
1.35566e-05
1.16539e-05
1.32057e-05
1.17072e-05
1.26453e-05
1.16878e-05
1.18534e-05
1.16129e-05
1.08109e-05
1.1509e-05
9.49988e-06
1.14101e-05
7.90555e-06
1.13605e-05
6.02408e-06
1.14157e-05
3.86799e-06
1.16331e-05
1.46763e-06
1.20524e-05
-1.12652e-06
1.26661e-05
-3.84999e-06
1.33631e-05
-6.66295e-06
1.38277e-05
-9.66609e-06
1.33847e-05
-1.33247e-05
1.0844e-05
-1.86856e-05
4.43328e-06
-2.62605e-05
-7.8025e-06
-3.10307e-05
-2.3466e-05
-3.39065e-05
-2.5218e-05
-3.61674e-05
-2.24424e-05
-1.76283e-05
7.03912e-07
9.18159e-07
1.36938e-06
3.99178e-07
1.99911e-06
3.56104e-07
2.61578e-06
4.88806e-07
3.23344e-06
7.31092e-07
3.86066e-06
1.06284e-06
4.50231e-06
1.47238e-06
5.16048e-06
1.94989e-06
5.83522e-06
2.48604e-06
6.52494e-06
3.07161e-06
7.2267e-06
3.6975e-06
7.93644e-06
4.35467e-06
8.64906e-06
5.03415e-06
9.35854e-06
5.72702e-06
1.00579e-05
6.42428e-06
1.0739e-05
7.11682e-06
1.13925e-05
7.79541e-06
1.20079e-05
8.45089e-06
1.25732e-05
9.07427e-06
1.3075e-05
9.65681e-06
1.34983e-05
1.01904e-05
1.38267e-05
1.06681e-05
1.40421e-05
1.10845e-05
1.41252e-05
1.14363e-05
1.40555e-05
1.17236e-05
1.38121e-05
1.19506e-05
1.33735e-05
1.21264e-05
1.27193e-05
1.22671e-05
1.18316e-05
1.23967e-05
1.06955e-05
1.25462e-05
9.30103e-06
1.27549e-05
7.64842e-06
1.30683e-05
5.75111e-06
1.35304e-05
3.63601e-06
1.41675e-05
1.34008e-06
1.4962e-05
-1.1048e-06
1.5808e-05
-3.71343e-06
1.64363e-05
-6.63832e-06
1.63096e-05
-1.03344e-05
1.45402e-05
-1.57381e-05
9.83689e-06
-2.36421e-05