/*--------------------------------*- C++ -*----------------------------------*\
| =========                 |                                                 |
| \\      /  F ield         | OpenFOAM: The Open Source CFD Toolbox           |
|  \\    /   O peration     | Version:  5.0                                   |
|   \\  /    A nd           | Web:      www.OpenFOAM.org                      |
|    \\/     M anipulation  |                                                 |
\*---------------------------------------------------------------------------*/
FoamFile
{
    version     2.0;
    format      ascii;
    class       volScalarField;
    location    "0.75";
    object      alpha.water;
}
// * * * * * * * * * * * * * * * * * * * * * * * * * * * * * * * * * * * * * //

dimensions      [0 0 0 0 0 0 0];

internalField   nonuniform List<scalar> 
1935
(
-8.16157e-11
-5.54624e-11
-3.85696e-11
-2.71395e-11
-1.90761e-11
-1.3214e-11
-8.8869e-12
-5.68937e-12
-3.34395e-12
-1.61839e-12
-3.08022e-13
1.49333e-12
4.87023e-12
9.85204e-12
1.61058e-11
1.78144e-11
1.69608e-11
1.39299e-11
8.99788e-12
4.48434e-12
1.84851e-12
6.61861e-13
1.86589e-13
3.37894e-14
3.40484e-15
2.54978e-16
2.63908e-17
3.19475e-18
3.1811e-19
3.03783e-20
2.77749e-21
2.27497e-22
1.57426e-23
9.08062e-25
4.28565e-26
1.59556e-27
4.6185e-29
1.24175e-30
6.34452e-32
8.35268e-34
4.73222e-36
5.0785e-39
1.05818e-54
-1.17322e-10
-1.33197e-10
-1.09142e-10
-4.99752e-11
-8.3119e-11
-9.62943e-11
-8.02572e-11
-3.86754e-11
-6.00997e-11
-7.071e-11
-5.89935e-11
-2.84462e-11
-4.40251e-11
-5.28152e-11
-4.41735e-11
-2.10279e-11
-3.23676e-11
-4.00027e-11
-3.40222e-11
-1.62161e-11
-2.36267e-11
-3.05043e-11
-2.69719e-11
-1.33251e-11
-1.69097e-11
-2.31558e-11
-2.18095e-11
-1.16848e-11
-1.16845e-11
-1.72321e-11
-1.76665e-11
-1.07025e-11
-7.62089e-12
-1.2322e-11
-1.39927e-11
-9.84815e-12
-4.48035e-12
-8.21332e-12
-1.05162e-11
-8.70286e-12
-2.0296e-12
-4.76895e-12
-7.16031e-12
-7.02983e-12
-6.98442e-14
-1.80475e-12
-3.91501e-12
-4.78322e-12
3.77854e-12
1.16448e-12
-7.79112e-13
-2.03603e-12
1.00382e-11
8.26563e-12
4.72408e-12
1.71155e-12
2.08577e-11
1.95913e-11
1.6876e-11
1.29096e-11
3.22552e-11
4.07447e-11
3.83854e-11
3.46321e-11
3.31634e-11
5.69243e-11
7.49517e-11
7.76754e-11
3.05735e-11
5.58423e-11
9.13447e-11
1.42231e-10
2.29122e-11
4.77449e-11
8.61065e-11
1.45537e-10
1.28243e-11
3.07939e-11
6.54078e-11
1.28105e-10
5.58914e-12
1.43588e-11
3.48163e-11
8.19232e-11
2.18872e-12
5.74368e-12
1.38364e-11
3.42696e-11
7.61475e-13
2.2734e-12
5.54554e-12
1.20375e-11
1.8903e-13
7.30775e-13
2.14093e-12
4.86273e-12
2.63217e-14
1.39341e-13
5.5294e-13
1.61512e-12
2.18487e-15
1.38616e-14
7.19173e-14
2.86424e-13
2.1141e-16
1.28935e-15
6.69895e-15
2.8887e-14
2.91013e-17
2.02057e-16
1.11804e-15
4.7009e-15
3.1348e-18
2.67141e-17
1.78118e-16
8.45656e-16
3.02476e-19
3.08044e-18
2.41004e-17
1.27421e-16
2.75455e-20
3.32584e-19
3.04028e-18
1.78749e-17
2.3093e-21
3.34546e-20
3.62035e-19
2.41453e-18
1.60928e-22
2.83988e-21
3.81831e-20
3.06039e-19
8.85492e-24
1.82645e-22
3.23512e-21
3.40425e-20
3.87817e-25
8.38806e-24
2.0257e-22
3.09488e-21
1.35029e-26
2.59061e-25
8.35434e-24
2.08454e-22
3.77198e-28
5.10202e-27
1.75389e-25
8.73185e-24
1.18844e-29
8.98084e-29
6.83737e-28
1.30563e-25
7.2334e-31
1.91827e-30
5.27489e-32
9.5151e-31
7.1922e-33
1.82133e-32
3.42492e-34
2.57705e-32
4.26085e-35
1.06487e-34
2.80578e-37
1.1644e-34
7.16488e-38
1.94457e-37
1.25491e-44
1.49983e-41
0
0
-8.30864e-61
-3.4618e-44
-2.51393e-12
6.65062e-11
2.22663e-10
3.5318e-10
3.75217e-10
4.83486e-10
5.50674e-10
3.15952e-09
8.34428e-08
0.00014051
0.000460392
0.000462639
6.74721e-05
2.60257e-06
3.22015e-06
2.21597e-05
5.88859e-05
9.42765e-06
1.09922e-08
8.76997e-09
5.09568e-09
1.65561e-08
0.000337724
0.000666008
0.000782725
0.000777131
0.000768886
7.03379e-05
6.02339e-11
6.28039e-10
1.65206e-09
1.44759e-09
1.491e-09
1.69055e-09
1.56395e-09
1.68447e-09
1.69598e-09
6.14839e-10
1.69248e-08
-1.67866e-09
-1.30396e-12
6.64929e-11
2.08458e-10
3.07383e-10
2.91388e-10
3.06351e-10
2.02141e-10
3.84778e-09
6.58987e-07
0.000265684
0.000458145
0.000229221
2.60257e-06
2.531e-06
3.6403e-06
3.14859e-05
3.27377e-05
1.09922e-08
1.04675e-08
9.88801e-09
5.67238e-09
5.55203e-09
3.30227e-09
3.52396e-09
0.000289578
0.000646587
0.000371785
3.22803e-05
4.09764e-10
8.68031e-10
1.3423e-09
1.3049e-09
1.29371e-09
1.34901e-09
1.38461e-09
1.47806e-09
1.452e-09
7.20536e-10
-1.09926e-06
0.160297
4.35325e-13
5.93199e-11
1.55509e-10
1.95067e-10
1.60393e-10
1.55767e-10
2.7493e-10
6.84214e-09
1.8523e-05
0.000203889
0.000195623
3.23752e-06
2.531e-06
2.531e-06
3.70289e-06
6.89418e-06
1.9473e-06
1.89048e-08
2.33883e-08
3.47303e-08
5.74356e-09
5.27991e-09
4.35307e-09
3.53801e-09
3.71199e-09
3.51905e-09
3.72888e-09
5.93048e-09
3.5662e-09
2.96657e-09
1.50157e-09
1.26304e-09
1.23235e-09
1.22506e-09
1.27206e-09
1.2566e-09
1.14498e-09
-4.88751e-08
8.14304e-05
0.42133
1.16832e-12
3.92261e-11
8.12162e-11
8.67185e-11
6.2599e-11
4.78855e-11
1.84526e-10
5.24363e-07
2.37112e-05
3.06061e-05
1.28889e-06
2.69814e-06
4.94393e-06
2.79527e-06
7.82315e-07
4.66458e-07
4.09318e-07
4.01663e-07
2.35553e-07
3.20644e-08
5.68155e-09
5.34622e-09
5.08389e-09
4.40713e-09
4.18108e-09
4.03056e-09
4.38921e-09
7.42331e-09
3.19746e-08
2.0621e-08
3.63899e-09
1.42709e-09
1.20747e-09
1.18972e-09
1.17914e-09
1.0843e-09
1.07439e-09
-2.26997e-07
0.00506085
0.225642
3.04261e-13
1.5581e-11
2.63364e-11
2.65135e-11
1.6784e-11
1.46667e-11
7.71386e-11
7.78587e-07
1.35971e-05
4.18583e-07
2.03841e-07
2.80321e-06
5.78159e-06
5.69598e-06
6.65683e-07
5.34482e-07
2.3936e-06
4.02883e-06
1.94779e-06
5.97186e-09
5.69319e-09
2.21405e-08
4.5976e-08
7.04412e-09
4.52759e-09
4.7668e-09
7.04176e-09
2.04566e-08
2.60406e-07
1.85261e-07
1.85526e-08
2.71428e-09
1.27028e-09
1.18046e-09
1.09781e-09
1.04315e-09
1.04304e-09
2.26308e-09
0.00203489
1.16935e-18
-2.5384e-13
3.35886e-12
5.16835e-12
4.37338e-12
5.68851e-12
6.90974e-12
2.69213e-07
1.49666e-06
1.20797e-06
1.10989e-07
6.7906e-08
2.82223e-06
5.78159e-06
5.78159e-06
3.13653e-07
5.24844e-07
2.22396e-06
4.02883e-06
3.70706e-06
6.27452e-09
7.06338e-09
7.33984e-08
7.86901e-08
6.02947e-08
4.9461e-09
5.18497e-09
4.19226e-09
3.53393e-06
3.14067e-05
1.54666e-05
1.41879e-07
1.36867e-08
1.86298e-09
1.95239e-09
1.06248e-09
1.03996e-09
1.09101e-09
1.01371e-08
0.000116816
0.0140645
-7.18465e-13
2.64737e-12
2.80549e-12
2.92309e-12
1.26335e-07
1.53183e-06
2.71473e-06
2.93239e-06
1.12589e-07
6.79253e-08
5.28418e-08
1.82702e-06
5.78159e-06
2.43083e-06
2.81546e-07
3.66144e-07
2.90665e-07
2.18645e-06
4.96888e-07
2.81126e-07
7.19226e-09
7.86901e-08
7.87225e-08
7.86971e-08
3.83333e-08
5.39953e-09
1.30299e-09
3.91973e-05
0.00018286
0.000156188
2.32743e-05
1.01041e-07
6.30438e-09
4.14748e-09
1.0675e-09
9.11765e-10
4.26193e-10
6.76813e-08
2.89994e-06
0.456189
-1.2446e-12
5.30682e-12
3.6059e-12
3.02876e-12
1.23715e-06
2.87894e-06
2.91817e-06
2.92186e-06
1.88281e-06
9.74748e-08
4.87935e-08
2.3289e-07
8.57447e-07
4.30469e-08
1.79848e-07
8.15644e-08
1.38014e-08
9.77832e-09
3.16485e-09
2.881e-09
2.881e-09
4.01889e-08
7.86901e-08
7.87225e-08
7.55609e-08
6.02019e-09
1.83105e-09
8.59977e-05
0.000184361
0.000184342
0.000157333
8.508e-06
6.71789e-07
3.95001e-09
1.09956e-09
2.47086e-09
2.83796e-09
4.29736e-07
1.95381e-05
0.771253
-1.98144e-12
7.54824e-12
6.34034e-12
3.0208e-12
1.06994e-06
2.91147e-06
2.92185e-06
2.92572e-06
2.92888e-06
5.8348e-07
3.50695e-08
1.31438e-08
7.01184e-09
2.93979e-09
6.66153e-09
1.73723e-09
1.08582e-08
4.67355e-08
4.79336e-08
2.6805e-08
2.90146e-09
5.99206e-10
3.41136e-08
7.86036e-08
6.1839e-08
5.91187e-09
1.71161e-09
6.74473e-05
0.000184662
0.000185003
0.000185691
0.000107392
6.71651e-06
2.29886e-09
1.30301e-09
2.4321e-08
4.1562e-06
0.000100782
0.00151265
0.803825
-2.77318e-12
7.44097e-12
1.13623e-11
3.02876e-12
1.28581e-07
2.09763e-06
2.93406e-06
2.93065e-06
2.93234e-06
2.01139e-06
4.18302e-08
8.25928e-09
2.73828e-09
1.94124e-09
1.68553e-09
1.60292e-09
3.36815e-09
1.01767e-08
3.26433e-08
2.60648e-08
4.16912e-09
4.87752e-10
4.79316e-10
2.91048e-08
1.06707e-08
1.51872e-09
1.6625e-09
1.74e-09
0.000134205
0.000185691
0.000185969
0.000186619
2.81762e-05
6.16523e-09
2.75012e-09
2.71251e-08
4.73937e-06
0.000272566
0.044011
0.622727
-3.23099e-12
5.44499e-12
1.18693e-11
3.44699e-12
2.57161e-12
1.0025e-07
1.72167e-06
2.93384e-06
2.93242e-06
2.03564e-06
3.93512e-08
2.67231e-09
1.9727e-09
1.78907e-09
1.65256e-09
1.59103e-09
1.33996e-09
9.11958e-10
6.50933e-10
6.45989e-10
6.44102e-10
6.27055e-10
4.71782e-10
4.31934e-10
4.42447e-10
1.19256e-09
1.34152e-09
1.54991e-09
1.26549e-05
0.000183246
0.000185691
0.000185868
4.01844e-05
1.607e-08
8.65228e-09
1.20891e-08
4.77546e-07
0.00190078
0.0669668
0.106153
-2.96292e-12
4.01802e-13
1.06518e-11
4.6438e-12
3.84566e-12
1.19626e-09
3.62968e-08
1.12949e-06
1.60209e-06
7.61013e-07
5.58975e-08
2.38367e-09
1.98777e-09
1.94001e-09
1.89999e-09
1.7865e-09
1.52276e-09
1.28569e-09
1.30174e-09
1.24447e-09
1.00811e-09
7.43176e-10
6.3615e-10
4.22236e-10
4.37748e-10
4.46676e-10
1.17165e-09
1.78198e-09
2.89806e-09
0.000168469
0.000184756
0.000186858
1.92684e-05
1.83059e-08
1.0101e-08
1.11921e-09
4.46037e-06
0.00574839
0.00930986
-1.11518e-24
-1.77716e-12
-4.97231e-14
4.66051e-12
2.07409e-11
1.45391e-11
1.46882e-10
1.25994e-09
6.50071e-09
1.53633e-08
5.77318e-09
3.04342e-08
8.40062e-09
2.25789e-09
2.16208e-09
2.12981e-09
1.98213e-09
1.72488e-09
1.46864e-09
1.26301e-09
1.00113e-09
6.63239e-10
6.17982e-10
5.51447e-10
3.89855e-10
3.37147e-10
4.27038e-10
2.33479e-09
2.9008e-09
1.1315e-08
0.000122552
0.000184563
9.33496e-05
3.73235e-07
5.80731e-09
1.00292e-09
6.82291e-10
1.57007e-10
0.00113238
4.91155e-11
-8.92146e-24
1.86816e-13
4.99687e-13
2.13366e-12
2.02592e-11
4.15924e-11
5.93214e-11
1.47973e-10
6.62329e-10
8.94291e-10
6.23559e-10
1.39226e-09
3.12395e-09
2.36367e-09
2.05477e-09
1.96174e-09
1.819e-09
1.59341e-09
1.31168e-09
9.70768e-10
6.42073e-10
5.17647e-10
4.68674e-10
3.30432e-10
2.46677e-10
2.58985e-10
7.74193e-08
4.39133e-07
3.61718e-08
1.78511e-08
3.67956e-05
0.000173527
4.63955e-05
1.00867e-07
4.96881e-09
7.33407e-10
3.36628e-10
1.22755e-10
9.83093e-11
1.04767e-10
1.28846e-10
8.76372e-12
5.66518e-12
4.31844e-12
1.22314e-11
2.62426e-11
2.69947e-11
4.38266e-11
1.14169e-10
1.59908e-10
1.81129e-10
2.39602e-10
5.74879e-10
9.33455e-10
1.10352e-09
1.15488e-09
1.09858e-09
9.64389e-10
7.48167e-10
5.07003e-10
4.34946e-10
4.32414e-10
3.8704e-10
2.483e-10
2.39785e-10
2.45057e-10
2.26188e-06
5.12725e-06
2.17574e-06
5.04366e-08
6.23477e-06
7.67733e-06
6.37035e-06
2.88375e-07
1.19863e-09
5.71077e-10
4.66667e-10
6.61395e-10
3.14273e-10
2.53409e-10
9.70952e-10
2.96114e-11
2.34051e-11
1.63906e-11
1.58049e-11
1.97684e-11
2.29477e-11
2.61785e-11
4.23727e-11
5.42334e-11
1.05783e-10
1.62895e-10
1.94369e-10
2.45899e-10
3.09343e-10
3.60614e-10
3.51e-10
3.148e-10
2.57775e-10
2.52193e-10
3.08297e-10
3.53529e-10
3.03823e-10
2.37099e-10
2.36942e-10
4.48029e-07
5.07377e-06
5.15054e-06
5.14122e-06
1.6952e-06
1.29978e-08
3.83742e-09
2.30802e-09
1.44614e-08
6.64698e-09
5.7533e-10
4.00426e-10
8.81776e-10
9.01148e-10
5.4025e-10
2.51559e-09
7.22938e-11
6.34741e-11
5.19802e-11
4.03091e-11
3.3157e-11
3.07519e-11
3.24761e-11
3.68702e-11
4.37632e-11
5.4693e-11
6.73394e-11
7.45163e-11
8.34812e-11
9.46606e-11
1.07333e-10
1.19488e-10
1.28617e-10
1.41221e-10
1.81724e-10
2.67426e-10
2.92295e-10
2.52959e-10
2.36155e-10
2.3621e-10
2.31683e-06
5.12435e-06
5.14021e-06
5.1465e-06
3.16534e-06
3.03769e-08
2.28991e-09
4.70262e-10
2.90045e-10
2.73685e-10
2.72216e-10
3.43939e-10
9.1485e-10
1.50339e-09
1.04171e-09
3.24743e-09
1.60023e-10
1.49434e-10
1.33266e-10
1.12722e-10
9.14875e-11
7.49348e-11
6.30111e-11
5.74362e-11
5.98203e-11
6.47573e-11
7.06769e-11
7.38271e-11
7.53128e-11
7.61788e-11
7.71135e-11
7.80228e-11
8.23728e-11
9.92122e-11
1.4276e-10
2.1528e-10
2.52267e-10
2.37836e-10
2.3423e-10
2.36155e-10
3.19055e-06
5.09896e-06
5.12435e-06
5.07866e-06
8.35614e-07
7.50264e-09
1.02566e-09
3.41503e-10
2.75895e-10
2.7213e-10
2.71591e-10
3.22086e-10
8.98139e-10
1.82202e-09
1.3861e-09
3.27938e-09
2.57757e-10
3.23226e-10
3.11532e-10
2.86644e-10
2.44238e-10
1.99183e-10
1.68351e-10
1.67149e-10
1.86382e-10
2.31975e-10
2.48112e-10
2.20435e-10
1.54695e-10
8.52692e-11
7.78982e-11
7.84987e-11
7.85976e-11
7.859e-11
9.11947e-11
1.46546e-10
1.80486e-10
1.92975e-10
2.1446e-10
2.34285e-10
1.09159e-06
4.922e-06
4.48727e-06
6.2102e-07
7.16802e-10
2.77767e-10
2.10903e-10
2.4696e-10
2.64995e-10
2.71243e-10
2.71591e-10
3.09022e-10
9.95043e-10
1.92494e-09
1.62886e-09
2.08915e-09
2.50623e-10
4.48698e-10
5.48154e-10
5.52678e-10
5.18157e-10
4.32783e-10
3.95227e-10
4.12008e-10
4.59517e-10
5.00641e-10
4.99136e-10
4.49104e-10
2.17673e-10
1.99664e-10
1.58708e-09
6.56714e-09
7.61018e-09
5.23589e-09
2.04593e-09
5.80319e-10
7.94739e-10
1.46879e-09
6.04837e-10
2.42917e-10
2.35651e-07
3.19547e-07
5.97754e-11
2.1163e-10
1.86261e-10
2.16074e-10
2.23523e-10
2.47652e-10
2.66479e-10
2.73351e-10
2.71591e-10
3.06698e-10
1.09537e-09
1.94517e-09
1.88934e-09
1.11357e-09
1.99115e-10
4.06493e-10
6.10809e-10
6.37586e-10
6.42074e-10
6.31542e-10
6.13021e-10
6.09616e-10
6.0171e-10
5.66352e-10
4.71192e-10
2.80423e-10
1.86855e-10
1.17794e-09
1.54228e-08
2.71629e-08
2.73271e-08
2.73541e-08
2.62107e-08
1.23839e-08
1.14124e-08
1.65399e-08
1.29364e-08
2.10734e-09
2.59049e-10
2.19146e-10
2.14341e-10
2.15853e-10
2.16333e-10
2.16538e-10
2.24755e-10
2.43838e-10
2.69256e-10
2.87208e-10
2.83554e-10
3.13344e-10
1.04171e-09
1.96986e-09
2.00421e-09
9.23748e-10
1.00181e-10
2.52178e-10
4.67056e-10
6.14599e-10
6.4494e-10
6.4494e-10
6.44821e-10
6.22478e-10
5.66827e-10
4.56502e-10
2.83778e-10
1.86959e-10
1.87703e-10
1.13225e-08
2.71827e-08
2.73294e-08
2.73541e-08
2.73576e-08
2.73576e-08
2.73576e-08
2.73568e-08
2.73524e-08
1.38799e-08
8.84014e-10
2.66156e-10
2.34555e-10
2.28218e-10
2.27079e-10
2.29998e-10
2.35869e-10
2.44832e-10
2.58085e-10
2.73674e-10
2.88678e-10
2.99504e-10
3.15979e-10
5.12948e-10
1.61206e-09
1.8778e-09
7.5415e-10
3.0722e-11
8.59441e-11
2.06949e-10
3.88322e-10
5.38738e-10
5.88473e-10
5.82468e-10
5.48307e-10
4.60109e-10
3.28029e-10
2.19837e-10
1.88085e-10
1.86869e-10
9.76529e-10
1.55593e-08
2.71723e-08
2.73286e-08
2.73541e-08
2.73576e-08
2.73568e-08
2.73542e-08
2.19383e-08
5.48501e-09
3.21827e-10
3.80991e-10
3.98668e-10
3.58854e-10
2.98736e-10
2.56917e-10
2.44237e-10
2.45525e-10
2.52708e-10
2.65802e-10
2.83144e-10
3.18879e-10
3.60337e-10
3.58806e-10
4.03749e-10
1.03181e-09
6.69724e-10
1.01664e-11
2.26925e-11
5.52655e-11
1.31868e-10
2.47435e-10
3.49497e-10
3.70753e-10
3.57144e-10
3.16133e-10
2.57461e-10
2.08269e-10
1.88e-10
2.08421e-10
5.33626e-10
1.66973e-09
1.55944e-09
2.05472e-09
1.44452e-08
2.27874e-08
1.29425e-08
1.37229e-09
4.66444e-11
7.77321e-11
1.82356e-10
2.19358e-10
2.16913e-10
2.00103e-10
1.83421e-10
1.86815e-10
1.99107e-10
2.17779e-10
2.44486e-10
2.56378e-10
2.55255e-10
2.55518e-10
2.56199e-10
2.25876e-09
2.86633e-09
1.75789e-09
5.48064e-10
3.87852e-12
8.14432e-12
1.61298e-11
3.29807e-11
6.40306e-11
1.08436e-10
1.45452e-10
1.6969e-10
1.8485e-10
1.92807e-10
1.9119e-10
1.88075e-10
1.78299e-10
1.76014e-10
1.7681e-10
1.46866e-10
5.79726e-11
4.75132e-11
4.68391e-11
4.65722e-11
4.63272e-11
4.65815e-11
5.07389e-11
6.06773e-11
7.18835e-11
8.58935e-11
1.02259e-10
1.16738e-10
1.39788e-10
1.74493e-10
2.19754e-10
2.51881e-10
2.55883e-10
2.55255e-10
2.55477e-10
2.57029e-10
1.8472e-09
1.00897e-08
4.8795e-09
4.85987e-10
9.52845e-13
2.43989e-12
5.04781e-12
9.41709e-12
1.66936e-11
2.8447e-11
4.50572e-11
6.50718e-11
8.78944e-11
1.12002e-10
1.37098e-10
1.48438e-10
1.46709e-10
1.41236e-10
1.30024e-10
1.15494e-10
9.94171e-11
8.11407e-11
6.57048e-11
5.6346e-11
4.5963e-11
4.58163e-11
4.71267e-11
5.13309e-11
7.28903e-11
8.95874e-11
1.02382e-10
1.18546e-10
1.46544e-10
2.07659e-10
2.32177e-10
2.30195e-10
2.31507e-10
1.42104e-07
2.01377e-07
2.0426e-07
5.8089e-08
8.92601e-09
5.9956e-09
5.9366e-10
1.20442e-13
4.02265e-13
1.02594e-12
2.15851e-12
4.03508e-12
6.981e-12
1.14127e-11
1.72178e-11
2.44596e-11
3.42332e-11
3.75602e-11
3.60381e-11
3.2315e-11
2.71609e-11
2.1976e-11
1.77239e-11
1.54636e-11
1.47506e-11
1.44566e-11
1.46373e-11
1.57134e-11
1.96774e-11
4.20192e-11
6.74743e-11
1.27726e-10
6.6189e-11
1.08113e-10
1.53746e-10
8.54303e-10
2.84446e-10
2.28068e-10
2.31507e-10
2.33672e-10
7.5868e-09
1.84653e-07
2.06241e-07
5.62565e-08
6.03969e-09
6.07741e-09
9.82063e-10
1.86064e-14
6.31343e-14
1.72872e-13
3.93509e-13
7.65787e-13
1.30497e-12
1.99232e-12
2.75113e-12
3.3922e-12
3.72656e-12
3.83715e-12
3.88045e-12
3.96216e-12
4.15392e-12
4.51468e-12
5.04274e-12
5.67844e-12
6.18446e-12
6.33767e-12
8.16712e-12
1.40553e-11
1.46723e-11
1.123e-10
5.84455e-10
-3.96841e-09
1.90239e-11
8.58046e-10
2.05845e-09
8.44776e-10
3.02734e-10
2.39228e-10
2.34477e-10
2.35582e-10
2.46081e-10
6.16187e-10
1.42543e-08
7.58286e-09
3.48566e-09
4.65418e-09
1.05538e-09
3.61211e-15
1.24805e-14
3.37467e-14
7.49336e-14
1.40718e-13
2.28707e-13
3.28396e-13
4.28372e-13
5.28294e-13
6.40265e-13
7.85678e-13
9.8737e-13
1.26229e-12
1.59558e-12
1.92649e-12
2.31828e-12
2.44544e-12
2.44546e-12
2.73964e-12
1.50188e-11
-6.76868e-11
-9.80101e-11
3.04026e-10
-4.92158e-09
7.06407e-08
6.06025e-08
3.34264e-08
3.27525e-05
0.000145036
0.000106616
4.53752e-06
2.99112e-05
0.000120617
2.45762e-06
-2.7517e-09
9.55911e-09
1.40448e-09
9.6968e-10
9.43825e-10
7.5144e-10
5.90026e-16
2.09928e-15
5.62417e-15
1.21048e-14
2.19544e-14
3.52419e-14
5.28917e-14
7.81062e-14
1.17009e-13
1.77836e-13
2.67944e-13
3.8853e-13
5.2986e-13
6.7004e-13
7.73952e-13
8.92002e-13
8.73583e-13
1.34669e-12
-4.05817e-11
-2.7521e-10
1.95175e-09
2.35956e-08
7.2069e-08
1.58678e-05
0.00014989
0.000141541
0.000123774
0.000430197
0.00048547
0.000488467
0.000499519
0.000510659
0.000543908
0.000553303
0.000275171
1.08427e-07
5.53011e-09
1.04381e-09
4.3581e-11
1.31578e-10
8.91707e-17
3.24199e-16
8.64236e-16
1.86122e-15
3.53633e-15
6.4369e-15
1.18215e-14
2.19705e-14
3.99976e-14
6.87398e-14
1.09251e-13
1.60397e-13
2.16986e-13
2.69573e-13
4.15823e-13
4.46358e-13
1.57285e-14
-5.48068e-11
6.18769e-10
8.4028e-09
4.51973e-08
1.28213e-05
6.16919e-05
0.000232694
0.000441733
0.000452948
0.00045724
0.000456712
0.000416911
0.000160172
0.000158318
0.00033663
0.000563362
0.000570845
0.000584823
0.00043878
4.33272e-05
3.989e-08
-3.66327e-09
0
1.31487e-17
4.9284e-17
1.35358e-16
3.16927e-16
7.12502e-16
1.62818e-15
3.71013e-15
8.00867e-15
1.58217e-14
2.84656e-14
4.73045e-14
7.17483e-14
1.02021e-13
1.68946e-13
3.66781e-13
3.3916e-13
-3.3786e-11
1.9353e-10
1.11519e-08
2.14565e-07
9.80538e-06
0.000351177
0.000367885
0.00036241
0.00027122
8.94451e-05
2.81176e-06
4.22741e-07
4.46857e-06
4.39102e-07
5.63078e-07
2.48048e-05
6.79226e-05
0.000289895
0.000600798
0.000612553
0.000152123
1.05365e-07
-3.35868e-09
0
1.91099e-18
7.70617e-18
2.34444e-17
6.52362e-17
1.83414e-16
5.15244e-16
1.35666e-15
3.21759e-15
6.86247e-15
1.33447e-14
2.34172e-14
3.74235e-14
7.14585e-14
3.12415e-13
3.14868e-13
8.78997e-13
5.20213e-11
4.11424e-09
2.51634e-07
0.000111562
0.000433999
0.0004283
0.000367979
3.16795e-05
1.50866e-07
1.40162e-07
1.8853e-07
2.18178e-07
2.18178e-07
3.02523e-07
3.05999e-07
4.15543e-07
7.02866e-07
2.35142e-06
0.00045995
0.000619018
0.000290267
3.67631e-06
1.79242e-09
0
2.64126e-19
1.21749e-18
4.40124e-18
1.51866e-17
5.30127e-17
1.77265e-16
5.32771e-16
1.41299e-15
3.32563e-15
6.91167e-15
1.23447e-14
2.75728e-14
1.40628e-13
9.54763e-13
-5.94961e-12
1.4825e-11
1.33264e-09
1.02595e-07
0.000234858
0.000474619
0.000469512
0.000162812
1.41355e-07
1.39761e-07
1.39975e-07
1.40011e-07
2.30339e-07
6.79883e-07
6.7182e-07
4.52794e-07
2.784e-07
2.99115e-07
3.54353e-07
7.27493e-07
0.000151596
0.000623531
0.000617696
3.70533e-05
-8.91045e-10
8.00027e-10
3.29304e-20
1.83439e-19
8.25674e-19
3.5796e-18
1.5461e-17
6.19589e-17
2.16782e-16
6.50335e-16
1.65821e-15
3.50113e-15
8.56965e-15
4.89557e-14
1.22216e-12
1.17117e-13
8.22463e-12
-8.17903e-10
2.5516e-08
0.000125197
0.000484087
0.000478066
5.71771e-05
1.46605e-07
1.40041e-07
1.39995e-07
1.39976e-07
1.39991e-07
4.36418e-07
6.81205e-07
4.70174e-07
2.75874e-07
2.62091e-07
2.78226e-07
2.99232e-07
3.54385e-07
0.00035899
0.000623631
0.000623531
2.95958e-05
-2.94563e-10
-3.16746e-11
3.46451e-21
2.44937e-20
1.41391e-19
7.78879e-19
4.21985e-18
2.06763e-17
8.52661e-17
2.86026e-16
7.58579e-16
2.05111e-15
1.29555e-14
4.32513e-13
4.00711e-12
5.76912e-12
2.31912e-11
9.96291e-09
5.03617e-05
0.000500407
0.000498011
0.00010274
1.60384e-07
1.40989e-07
1.40465e-07
1.40046e-07
1.39995e-07
1.4009e-07
1.46487e-07
1.54057e-07
1.55658e-07
1.59989e-07
1.66282e-07
2.22017e-07
2.73496e-05
0.000316427
0.000623599
0.000623599
0.000620324
5.1633e-09
2.5144e-11
-1.99993e-12
2.83261e-22
2.66953e-21
2.0225e-20
1.44173e-19
1.00039e-18
6.1012e-18
2.97449e-17
1.08253e-16
3.32714e-16
2.41405e-15
1.05773e-13
1.28856e-12
2.91666e-12
7.77514e-11
4.37082e-09
3.18741e-06
0.000289619
0.000500407
0.000321446
2.91762e-07
1.76888e-07
1.48621e-07
1.40935e-07
1.40163e-07
1.44603e-07
4.05458e-07
6.4756e-07
1.55658e-07
1.09999e-05
0.000226667
0.000382727
0.000456598
0.000580967
0.000610069
0.00061614
0.000623599
0.000166928
9.11693e-10
4.85142e-12
-1.20553e-18
1.63601e-23
2.17321e-22
2.21558e-21
2.08472e-20
1.88826e-19
1.45205e-18
8.13753e-18
3.35176e-17
2.19311e-16
1.30808e-14
3.00531e-13
5.30753e-13
1.05014e-11
1.01787e-09
3.6785e-08
4.17937e-05
0.000464071
0.000500407
0.000176966
3.64669e-07
8.48375e-06
1.01921e-05
1.84466e-07
1.48103e-07
1.87605e-07
4.11162e-07
3.26401e-05
0.00041004
0.000552182
0.000558502
0.000567185
0.000572599
0.000576688
0.000596134
0.000329383
0.000129405
1.12313e-06
3.75551e-07
1.01164e-05
8.70052e-05
5.83683e-25
1.19281e-23
1.69543e-22
2.12139e-21
2.51719e-20
2.40545e-19
1.605e-18
1.01109e-17
3.25361e-16
1.85808e-14
1.67065e-13
3.65187e-12
9.1782e-11
3.52557e-09
1.17268e-07
0.000105362
0.000490407
0.000496141
0.000172148
8.59859e-07
3.43616e-05
8.03143e-05
2.96458e-07
2.62229e-07
2.00233e-06
3.6088e-06
9.96668e-05
0.000506802
0.000543118
0.000320105
0.000267532
0.000326759
0.000191399
7.37412e-05
1.37962e-05
1.15789e-05
1.34885e-05
2.89245e-05
5.6373e-05
5.77291e-05
1.08745e-26
3.84279e-25
8.08088e-24
1.34945e-22
2.04393e-21
2.45857e-20
2.13858e-19
3.05756e-18
2.62703e-16
1.42442e-14
1.47214e-13
6.19504e-12
1.84236e-10
5.95028e-09
1.75562e-07
0.000124984
0.000491189
0.000490379
0.000215999
3.29675e-06
4.87621e-05
0.00011692
3.98539e-05
1.89947e-05
5.88236e-05
5.95185e-05
4.88999e-05
3.27452e-05
3.82898e-05
1.79566e-05
2.81128e-05
4.19472e-05
4.54848e-05
6.08564e-06
1.73822e-06
1.31253e-05
3.52085e-05
3.52425e-05
2.43514e-05
5.27098e-08
7.95644e-29
5.86489e-27
2.05926e-25
4.72657e-24
8.95592e-23
1.39897e-21
1.55981e-20
2.91621e-19
4.30155e-17
3.78062e-15
6.46107e-14
3.12667e-12
9.04961e-11
3.17676e-09
8.88753e-08
5.03013e-05
0.000466443
0.00047691
0.000260633
7.69387e-06
7.11417e-05
0.000116764
0.00011691
0.000115619
2.15985e-05
3.92062e-09
1.98083e-08
1.1052e-07
5.27336e-07
2.84115e-06
3.79917e-05
5.66722e-05
5.30258e-05
4.51674e-06
4.94217e-07
6.33384e-06
1.32493e-05
7.7493e-06
2.21581e-07
2.68994e-25
1.2046e-31
2.78854e-29
2.1182e-27
7.68243e-26
1.84183e-24
3.54744e-23
4.47568e-22
5.94954e-21
1.90139e-18
4.06609e-16
1.92195e-14
6.33011e-13
2.08352e-11
8.19796e-10
2.55576e-08
7.99499e-06
0.000333436
0.000464813
0.000326659
1.35849e-05
5.15366e-05
0.000116858
0.000116761
9.11007e-05
1.17867e-11
1.15508e-10
1.22865e-09
8.38051e-09
1.04398e-07
1.99599e-06
2.79675e-05
4.23764e-05
1.43357e-05
1.87357e-06
2.52483e-08
6.09458e-08
1.00091e-08
1.55585e-09
1.02501e-11
1.00662e-12
-9.90901e-44
9.96626e-37
1.81776e-31
2.15909e-29
9.79956e-28
2.58881e-26
4.88146e-26
7.38715e-28
4.76724e-23
6.15625e-18
2.75948e-15
5.14399e-14
2.89489e-12
9.35518e-11
3.27115e-09
8.79338e-08
4.20678e-05
0.000309145
0.00021803
1.70199e-05
1.70199e-05
6.55301e-05
0.000114374
6.26167e-05
2.17809e-27
-1.74311e-26
-7.7297e-11
1.21013e-09
7.74279e-08
1.05349e-06
1.63962e-06
1.04046e-06
9.71641e-08
3.76658e-08
2.09773e-08
1.22593e-08
1.88526e-09
1.02501e-11
-2.17385e-27
6.68384e-16
)
;

boundaryField
{
    leftWall
    {
        type            zeroGradient;
    }
    rightWall
    {
        type            zeroGradient;
    }
    lowerWall
    {
        type            zeroGradient;
    }
    atmosphere
    {
        type            inletOutlet;
        inletValue      uniform 0;
        value           nonuniform List<scalar> 
45
(
0
0
0
0
0
0
0
0
0
0
0
0
0
0
0
2.75948e-15
5.14399e-14
2.89489e-12
9.35518e-11
3.27115e-09
8.79338e-08
4.20678e-05
0.000309145
0.00021803
1.70199e-05
1.70199e-05
6.55301e-05
0.000114374
6.26167e-05
0
0
0
1.21013e-09
7.74279e-08
1.05349e-06
1.63962e-06
1.04046e-06
9.71641e-08
3.76658e-08
2.09773e-08
1.22593e-08
1.88526e-09
1.02501e-11
0
0
)
;
    }
    defaultFaces
    {
        type            empty;
    }
    procBoundary3to1
    {
        type            processor;
        value           nonuniform List<scalar> 
45
(
-1.23828e-10
-1.69563e-10
-1.85537e-10
-1.43518e-10
-5.56247e-11
-1.36131e-28
5.65659e-11
1.92307e-10
3.07389e-10
4.75415e-10
8.04189e-10
2.95022e-09
5.25663e-09
3.40663e-08
2.63847e-05
0.000441496
0.000462639
0.000438874
3.21805e-06
4.11858e-06
1.10412e-05
7.24985e-05
2.0673e-05
1.50075e-08
3.73501e-08
0.000292783
0.000752135
0.000781168
0.000781219
0.000780523
0.000780087
0.000644459
4.16152e-06
1.47074e-11
6.60535e-10
1.89848e-09
1.76232e-09
1.84337e-09
1.92156e-09
1.78699e-09
1.84432e-09
2.03843e-09
1.32155e-09
0.000974938
2.92338e-19
)
;
    }
    procBoundary3to2
    {
        type            processor;
        value           nonuniform List<scalar> 
43
(
-4.63517e-11
-2.94685e-11
-1.92264e-11
-1.27168e-11
-8.40016e-12
-5.44968e-12
-3.40245e-12
-1.97807e-12
-9.82358e-13
-2.62187e-13
5.23875e-13
1.99759e-12
3.85104e-12
6.44819e-12
7.93151e-12
7.75571e-12
6.8019e-12
4.88008e-12
2.73942e-12
1.22761e-12
4.57101e-13
1.36063e-13
2.78778e-14
3.26837e-15
2.26855e-16
1.75104e-17
2.04716e-18
2.28319e-19
2.49894e-20
2.62448e-21
2.49251e-22
2.02061e-23
1.39283e-24
8.08123e-26
3.79261e-27
1.37002e-28
3.64068e-30
6.73799e-32
1.20092e-33
2.47477e-35
1.15284e-37
3.05513e-41
-1.74068e-72
)
;
    }
}


// ************************************************************************* //
