/*--------------------------------*- C++ -*----------------------------------*\
| =========                 |                                                 |
| \\      /  F ield         | OpenFOAM: The Open Source CFD Toolbox           |
|  \\    /   O peration     | Version:  5.0                                   |
|   \\  /    A nd           | Web:      www.OpenFOAM.org                      |
|    \\/     M anipulation  |                                                 |
\*---------------------------------------------------------------------------*/
FoamFile
{
    version     2.0;
    format      ascii;
    class       volScalarField;
    location    "0.75";
    object      epsilon;
}
// * * * * * * * * * * * * * * * * * * * * * * * * * * * * * * * * * * * * * //

dimensions      [0 2 -3 0 0 0 0];

internalField   nonuniform List<scalar> 
1935
(
2.1867
2.2966
2.38913
2.45947
2.50446
2.52271
2.51448
2.48143
2.42632
2.35264
2.26428
2.16521
2.05917
1.94951
1.83899
1.72973
1.62319
1.52016
1.42092
1.32529
1.23279
1.14281
1.05473
0.968097
0.882718
0.79876
0.716763
0.637595
0.562326
0.492667
0.429939
0.374334
0.325723
0.283703
0.247678
0.216954
0.19082
0.168624
0.149819
0.133993
0.120896
0.110431
0.10263
2.63396
3.14741
3.74558
4.43367
2.7633
3.29615
3.91297
4.61715
2.8693
3.41438
4.04121
4.75129
2.94629
3.4957
4.12338
4.82911
2.99081
3.53656
4.15614
4.84787
3.00167
3.53618
4.13944
4.80866
2.97972
3.49621
4.07599
4.71556
2.9275
3.42027
3.97068
4.57487
2.84884
3.31337
3.82989
4.39443
2.74837
3.18145
3.66092
4.18293
2.63117
3.03082
3.47143
3.9494
2.5023
2.86776
3.26897
3.70265
2.36652
2.6981
3.06051
3.45086
2.22803
2.52693
2.85215
3.20112
2.09025
2.35843
2.64882
2.95919
1.95578
2.1957
2.45419
2.72931
1.82634
2.04076
2.2706
2.51418
1.70286
1.89462
2.09916
2.315
1.58553
1.75743
1.93993
2.13174
1.47402
1.62863
1.79209
1.96329
1.36758
1.50717
1.65425
1.80784
1.26526
1.39173
1.52465
1.66317
1.16611
1.28094
1.40146
1.52693
1.06932
1.17362
1.28304
1.39695
0.974398
1.06889
1.1681
1.27148
0.881262
0.966407
1.05594
1.1494
0.7903
0.866342
0.946489
1.03037
0.702327
0.769426
0.84035
0.914809
0.618463
0.676811
0.738676
0.803835
0.540375
0.590095
0.643009
0.699012
0.469977
0.511797
0.556456
0.603925
0.407526
0.442255
0.479454
0.519158
0.352928
0.381424
0.412026
0.444816
0.305772
0.328902
0.353795
0.380566
0.265413
0.284005
0.304052
0.32569
0.231073
0.245876
0.261869
0.279199
0.201939
0.213599
0.226226
0.239969
0.177245
0.186294
0.196121
0.206874
0.156342
0.163196
0.170664
0.178883
0.138724
0.143701
0.149141
0.155164
0.124071
0.127413
0.131076
0.13515
0.112234
0.114132
0.116214
0.118536
0.103211
0.103821
0.104489
0.105233
5.2596
6.24124
7.32611
8.49477
9.71372
10.9315
12.1042
13.1889
14.146
14.9405
15.5522
15.9736
16.1941
16.2068
16.013
15.611
14.9995
14.1941
13.2206
12.1162
10.9414
9.76561
8.66245
7.6826
6.84618
6.15137
5.58535
5.12975
4.76015
4.45684
4.20661
3.99908
3.82784
3.69204
3.60036
3.57948
3.687
4.00891
4.70685
10.0736
5.45497
6.44038
7.51598
8.65901
9.82635
10.973
12.0563
13.0348
13.8705
14.5325
15.005
15.2791
15.3463
15.2071
14.8702
14.3417
13.634
12.7732
11.7933
10.745
9.67682
8.64496
7.69985
6.87308
6.17442
5.60036
5.1386
4.77145
4.47764
4.23934
4.04396
3.88199
3.74797
3.642
3.57329
3.56779
3.68152
3.98598
4.612
9.44387
5.58867
6.56297
7.61298
8.71248
9.81576
10.8827
11.8727
12.7474
13.4728
14.0227
14.3806
14.5353
14.4832
14.2326
13.7955
13.1857
12.4257
11.5488
10.5956
9.61697
8.65474
7.75161
6.94158
6.24289
5.65921
5.18449
4.80649
4.50902
4.27443
4.0876
3.93667
3.81283
3.71109
3.63154
3.5825
3.58771
3.69981
4.00014
4.68528
9.39667
5.65425
6.60414
7.61521
8.65931
9.69338
10.6787
11.5782
12.3569
12.9855
13.4409
13.7054
13.7687
13.6324
13.3077
12.8098
12.1589
11.3841
10.5227
9.61795
8.71625
7.85333
7.06111
6.36228
5.76726
5.27575
4.88008
4.56817
4.32565
4.13808
3.99259
3.8784
3.78748
3.7152
3.66141
3.63302
3.65111
3.76766
4.08012
4.88766
9.38548
5.6503
6.56487
7.52737
8.5086
9.4723
10.3786
11.194
11.8871
12.4321
12.8084
12.9999
12.9989
12.8091
12.4427
11.9178
11.259
10.4985
9.6754
8.83193
8.00865
7.23582
6.53764
5.92953
5.41716
4.99801
4.66393
4.40361
4.20457
4.05482
3.94328
3.86034
3.7988
3.75455
3.72749
3.72377
3.76202
3.89122
4.22916
5.12597
10.2124
5.5796
6.45053
7.35844
8.27457
9.16554
9.99686
10.7367
11.3549
11.8292
12.1417
12.2793
12.2366
12.018
11.6364
11.1116
10.4702
9.74551
8.9756
8.19988
7.45312
6.76094
6.14226
5.60815
5.16168
4.7994
4.51351
4.29387
4.12976
4.0111
3.92841
3.87316
3.8388
3.82184
3.82279
3.84811
3.91458
4.06579
4.43798
5.35257
10.9452
5.44798
6.2692
7.11881
7.96941
8.7903
9.55018
10.2195
10.7724
11.188
11.4508
11.5506
11.4839
11.2558
10.8794
10.375
9.7695
9.09535
8.38802
7.68287
7.00949
6.38975
5.83895
5.36595
4.97275
4.65588
4.40844
4.22173
4.08665
3.99476
3.93801
3.9088
3.90111
3.91202
3.94301
4.0018
4.10484
4.28394
4.58737
5.50709
11.8227
5.26339
6.03055
6.81957
7.60484
8.35818
9.05109
9.65685
10.1522
10.5188
10.7431
10.8173
10.7397
10.516
10.1594
9.68974
9.13273
8.51842
7.87876
7.24469
6.64134
6.08769
5.59687
5.17613
4.82726
4.54767
4.3319
4.17285
4.06305
3.99567
3.96384
3.96086
3.98145
4.02305
4.08796
4.18548
4.33246
4.55076
4.85081
5.69203
11.8767
5.03513
5.74533
6.47252
7.19313
7.88147
8.51171
9.0598
9.50496
9.83081
10.026
10.0843
10.0058
9.79647
9.46925
9.04285
8.54093
7.99051
7.41966
6.85508
6.31811
5.82538
5.38845
5.01392
4.70386
4.4568
4.26882
4.13457
4.04825
4.00448
3.99785
4.02276
4.075
4.15256
4.25809
4.40222
4.60324
4.87199
5.19649
5.95864
11.3733
4.77333
5.42494
6.08995
6.74699
7.37288
7.94438
8.4399
8.84093
9.13301
9.30641
9.35648
9.28402
9.09555
8.8032
8.42418
7.97972
7.49359
6.9901
6.49214
6.01789
5.58191
5.19461
4.8623
4.5876
4.37022
4.20779
4.09677
4.03307
4.01251
4.03138
4.08572
4.17265
4.29104
4.44302
4.64043
4.9082
5.25473
5.62504
6.4015
10.8415
4.48834
5.08099
5.68437
6.2794
6.84543
7.36173
7.80905
8.17094
8.43467
8.59191
8.63902
8.57738
8.41342
8.15838
7.82773
7.4402
7.01639
6.57719
6.14217
5.72687
5.34405
5.00313
4.71025
4.46862
4.27908
4.14074
4.05169
4.0096
4.01149
4.05481
4.13795
4.25908
4.4171
4.61248
4.85674
5.18623
5.6147
6.07578
7.17505
11.3869
4.1903
4.7248
5.26801
5.80315
6.31206
6.77647
7.17936
7.50617
7.74571
7.89077
7.93846
7.89035
7.75251
7.53507
7.25173
6.91874
6.55383
6.17484
5.79848
5.43819
5.10506
4.80763
4.55186
4.34147
4.17826
4.06266
3.99418
3.97188
3.99396
4.05887
4.16659
4.31533
4.50158
4.72211
4.98443
5.3245
5.75199
6.3448
7.98151
13.8541
3.88856
4.36687
4.8523
5.33033
5.78518
6.20095
6.56277
6.85785
7.07635
7.212
7.26236
7.22901
7.11736
6.93638
6.69794
6.41602
6.10574
5.78229
5.45992
5.15041
4.86334
4.60641
4.38539
4.20434
4.06586
3.97144
3.92174
3.91686
3.95598
4.03811
4.16313
4.32812
4.52437
4.74468
4.99141
5.28414
5.6793
6.35436
8.17003
17.4242
3.59129
4.01644
4.44737
4.87172
5.276
5.64655
5.97049
6.23672
6.43663
6.56471
6.61884
6.60035
6.51394
6.36729
6.17056
5.93562
5.67527
5.40236
5.12901
4.86581
4.62088
4.40117
4.21222
4.0583
3.94261
3.86749
3.83454
3.84466
3.89786
3.99325
4.12893
4.29986
4.49428
4.70405
4.93245
5.20613
5.617
6.41713
8.56651
21.0872
3.30514
3.68099
4.06152
4.4363
4.79397
5.12295
5.41224
5.65229
5.83563
5.9574
6.01566
6.01142
5.94858
5.83357
5.67491
5.48255
5.26722
5.03977
4.81051
4.5888
4.38177
4.19567
4.03574
3.90637
3.81123
3.75331
3.73503
3.75803
3.82296
3.92915
4.0731
4.24703
4.4406
4.64879
4.88096
5.178
5.65245
6.57917
8.93875
22.1731
3.03498
3.36609
3.7009
4.03077
4.34624
4.6376
4.89559
5.11209
5.28066
5.39703
5.45936
5.4683
5.42696
5.34056
5.21609
5.06179
4.88656
4.69948
4.50932
4.3243
4.15082
3.99448
3.86027
3.75264
3.67562
3.63279
3.62728
3.66149
3.73671
3.85246
4.00485
4.18603
4.38833
4.61068
4.86804
5.20783
5.74255
6.73611
9.15611
22.2085
2.78389
3.07518
3.36937
3.65935
3.93732
4.19526
4.42546
4.62108
4.77661
4.88832
4.95442
4.97525
4.95311
4.89214
4.79795
4.67722
4.53726
4.3856
4.22964
4.07668
3.93242
3.80196
3.69008
3.60129
3.53992
3.51011
3.51568
3.55981
3.64453
3.76991
3.9329
4.12756
4.34873
4.59823
4.89323
5.27979
5.85948
6.8748
9.25751
21.977
2.55321
2.80972
3.06849
3.32372
3.56903
3.79787
4.00385
4.18129
4.3255
4.43322
4.50274
4.53405
4.52879
4.4901
4.42235
4.33088
4.22158
4.10064
3.97422
3.84899
3.72986
3.62154
3.52868
3.45585
3.4077
3.38888
3.40394
3.45691
3.55077
3.6866
3.86292
4.07607
4.3232
4.60745
4.94506
5.37639
5.98922
7.00469
9.32164
21.6778
2.34274
2.56938
2.7978
3.02329
3.24069
3.44465
3.62995
3.79186
3.92645
4.03084
4.10341
4.14386
4.15323
4.13381
4.08891
4.02267
3.93978
3.84529
3.7443
3.64275
3.54498
3.45539
3.37847
3.3189
3.28162
3.27182
3.29479
3.35552
3.45811
3.60506
3.7967
4.03151
4.30832
4.63039
5.01121
5.48395
6.12339
7.13287
9.38321
21.3973
2.15109
2.35238
2.55515
2.75558
2.94949
3.13254
3.30048
3.44939
3.57596
3.67767
3.75296
3.80131
3.82327
3.82039
3.79508
3.75046
3.6902
3.61834
3.5392
3.45787
3.37825
3.30442
3.24076
3.19203
3.16347
3.16081
3.19011
3.25741
3.3681
3.52629
3.73409
3.9918
4.29933
4.65926
5.08164
5.59248
6.25544
7.25978
9.45269
21.1703
1.97597
2.15592
2.3372
2.5167
2.69106
2.85676
3.01031
3.1485
3.2685
3.36812
3.44586
3.50105
3.53382
3.54511
3.53658
3.5105
3.46964
3.41714
3.35699
3.29317
3.22912
3.16865
3.11602
3.07607
3.05435
3.05712
3.09123
3.16383
3.28172
3.45059
3.67428
3.95457
4.29198
4.68801
5.14918
5.69518
6.38085
7.38496
9.5364
21.0163
1.81459
1.97656
2.13985
2.30194
2.46009
2.61144
2.75315
2.88253
2.99721
3.09526
3.17525
3.23638
3.27848
3.302
3.30799
3.29799
3.27402
3.2385
3.19522
3.14685
3.09646
3.04757
3.00429
2.97153
2.9551
2.96179
2.99929
3.07586
3.19972
3.37814
3.61656
3.91797
4.28317
4.71245
5.20914
5.78771
6.49704
7.51074
9.65781
21.1358
1.664
1.81069
1.9588
2.10628
2.25088
2.39029
2.52217
2.6443
2.75465
2.85152
2.93358
2.99997
3.05026
3.08455
3.10335
3.10761
3.09864
3.07921
3.05132
3.0171
2.97916
2.94069
2.90564
2.87891
2.86656
2.8759
2.91543
2.99455
3.12287
3.30924
3.56054
3.88078
4.27084
4.7298
5.25828
5.86632
6.59726
7.62342
9.78732
21.4552
1.52144
1.65486
1.7899
1.92486
2.05792
2.18718
2.31073
2.42672
2.53345
2.62942
2.71342
2.78455
2.84225
2.88629
2.91684
2.93425
2.94036
2.93627
2.92313
2.90253
2.87655
2.84798
2.82053
2.79908
2.78989
2.80076
2.84099
2.92109
3.05206
3.24427
3.50598
3.84203
4.25317
4.73742
5.29235
5.92424
6.67343
7.71204
9.89614
21.7615
1.38461
1.50615
1.62955
1.75344
1.87631
1.99664
2.11285
2.22344
2.32697
2.42219
2.508
2.58354
2.64816
2.7014
2.74337
2.77499
2.79632
2.80763
2.80944
2.80267
2.78882
2.77019
2.75018
2.73355
2.72674
2.73802
2.77749
2.85671
2.98805
3.18336
3.4522
3.8002
4.22846
4.73306
5.30937
5.96095
6.72587
7.77626
9.97933
22.0186
1.25191
1.36242
1.47507
1.58873
1.70222
1.8143
1.92371
2.02924
2.12976
2.22422
2.31174
2.39153
2.46296
2.52628
2.58139
2.62779
2.66499
2.69257
2.71031
2.71832
2.71738
2.70916
2.69664
2.68447
2.6792
2.68959
2.72645
2.80239
2.93109
3.12587
3.39765
3.7535
4.19365
4.71324
5.30614
5.97393
6.75299
7.81529
10.0361
22.222
1.12263
1.22253
1.32485
1.42869
1.53313
1.63721
1.73997
1.84048
1.93795
2.03156
2.12068
2.20531
2.28543
2.36036
2.42944
2.4918
2.54636
2.59194
2.62737
2.65176
2.66493
2.66779
2.66282
2.65451
2.64958
2.65725
2.68904
2.7585
2.8806
3.06995
3.33935
3.69636
4.14208
4.67104
5.27627
5.95777
6.75087
7.8272
10.067
22.379
0.99699
1.08643
1.17852
1.27261
1.36801
1.46405
1.56006
1.6553
1.74959
1.84292
1.93529
2.02637
2.11585
2.20323
2.28766
2.36789
2.44218
2.50833
2.56396
2.60683
2.6355
2.64992
2.65205
2.64635
2.63983
2.6422
2.66566
2.72449
2.8347
3.01254
3.27144
3.61919
4.05995
4.59263
5.20813
5.90243
6.71111
7.80614
10.0701
22.5012
0.87603
0.95505
1.03689
1.1211
1.20728
1.2951
1.38439
1.47529
1.56768
1.66166
1.75744
1.85514
1.95475
2.05591
2.15773
2.25858
2.35588
2.44611
2.52516
2.58892
2.63427
2.66001
2.6677
2.66219
2.6511
2.64486
2.65616
2.69955
2.79171
2.94956
3.18566
3.50794
3.9269
4.45053
5.07032
5.78002
6.6107
7.7331
10.0302
22.5756
0.761382
0.830173
0.902093
0.976931
1.05455
1.13494
1.21822
1.30471
1.39483
1.48915
1.58836
1.69312
1.8039
1.92071
2.04273
2.16792
2.2926
2.41138
2.51759
2.60458
2.66711
2.70284
2.713
2.70367
2.68408
2.66584
2.66212
2.68823
2.76124
2.89564
3.10165
3.38988
3.77185
4.25659
4.85116
5.5634
6.4168
7.57194
9.9067
22.5066
0.657089
0.716241
0.778671
0.844398
0.913547
0.986387
1.06338
1.14521
1.2328
1.32732
1.43012
1.54261
1.66602
1.80099
1.94696
2.10138
2.25901
2.41159
2.54879
2.66066
2.73952
2.78147
2.78961
2.77211
2.74048
2.7075
2.68762
2.69724
2.75292
2.86681
3.04653
3.30169
3.64293
4.07813
4.6187
5.28852
6.13558
7.31066
9.6582
22.1084
0.563869
0.614056
0.66756
0.7246
0.785539
0.850935
0.921602
0.998666
1.08362
1.17835
1.2851
1.40633
1.54441
1.70095
1.87583
2.06577
2.26301
2.45488
2.6261
2.76225
2.85261
2.89563
2.89952
2.8719
2.82439
2.77226
2.73257
2.723
2.75889
2.85129
3.00897
3.23969
3.54832
3.93732
4.42063
5.03429
5.83922
6.98775
9.2842
21.2228
0.48194
0.523988
0.569296
0.618259
0.671459
0.729733
0.794259
0.866653
0.949062
1.04425
1.15564
1.28714
1.44273
1.62548
1.83578
2.06891
2.31291
2.54874
2.75366
2.90811
3.00629
3.05188
3.0482
3.00387
2.93318
2.85661
2.79433
2.76395
2.7795
2.8512
2.98737
3.19375
3.47295
3.82557
4.26372
4.82478
5.57138
6.65441
8.81707
19.8065
0.41104
0.44588
0.483857
0.525513
0.571628
0.623306
0.682096
0.750137
0.830333
0.926538
1.04367
1.18764
1.3647
1.57981
1.83365
2.11857
2.41596
2.69686
2.9296
3.10104
3.20955
3.25082
3.22477
3.14917
3.04936
2.94925
2.86827
2.82209
2.8226
2.87842
2.99578
3.17852
3.42875
3.749
4.15022
4.66308
5.347
6.34549
8.31005
17.8063
0.350462
0.379065
0.410642
0.445858
0.485667
0.531423
0.585049
0.649247
0.727792
0.825862
0.950335
1.10977
1.31349
1.56859
1.87504
2.21984
2.57424
2.89692
3.15573
3.34383
3.45098
3.46203
3.39549
3.28518
3.16049
3.04422
2.95358
2.90166
2.89727
2.94585
3.05124
3.21609
3.44257
3.73371
4.09995
4.56839
5.19599
6.13021
7.99354
15.6182
0.299162
0.322466
0.348561
0.378213
0.412526
0.453093
0.502213
0.563193
0.640807
0.741844
0.87566
1.05428
1.29101
1.59484
1.96264
2.3734
2.78333
3.14199
3.42481
3.61335
3.68481
3.64628
3.54005
3.40304
3.26448
3.14586
3.06053
3.01706
3.01995
3.07151
3.17333
3.32689
3.53362
3.79757
4.12986
4.55624
5.13402
6.01063
7.72081
13.1634
0.255913
0.274753
0.296193
0.321072
0.350622
0.386668
0.431915
0.490291
0.567744
0.673023
0.818532
1.02032
1.29531
1.65365
2.08838
2.56656
3.02908
3.42029
3.71195
3.87478
3.88998
3.79922
3.65906
3.50529
3.3654
3.25769
3.19088
3.16769
3.18735
3.24944
3.3547
3.50335
3.69592
3.937
4.23965
4.63091
5.16698
5.98224
7.45502
10.4069
0.219451
0.234515
0.251971
0.272703
0.29803
0.329938
0.371437
0.427132
0.504114
0.613177
0.77006
0.995354
1.3103
1.72654
2.23331
2.78426
3.3022
3.72453
4.00763
4.11645
4.0618
3.91915
3.75319
3.5932
3.46091
3.37143
3.3289
3.33222
3.37881
3.46319
3.58075
3.73073
3.91574
4.14398
4.43128
4.80823
5.33443
6.10747
7.20579
7.44011
0.188581
0.200363
0.214278
0.231207
0.252495
0.280216
0.317602
0.369761
0.444796
0.555435
0.720765
0.966251
1.31856
1.79349
2.38005
3.01928
3.61015
4.06305
4.31303
4.33678
4.1914
3.99537
3.81754
3.66331
3.54435
3.47846
3.47003
3.51355
3.59823
3.7132
3.85285
4.0194
4.21962
4.46558
4.77821
5.18652
5.71908
6.34073
6.694
4.73869
0.162331
0.171162
0.181791
0.195035
0.212178
0.235257
0.267565
0.31449
0.384902
0.49321
0.661635
0.92045
1.30327
1.83601
2.51783
3.2844
3.99464
4.48952
4.66258
4.53696
4.26353
4.0144
3.84016
3.70865
3.62303
3.61376
3.67902
3.79269
3.93249
4.09189
4.27577
4.49027
4.7388
5.02514
5.35397
5.71559
6.04246
6.11247
5.37306
2.83463
0.140036
0.146131
0.153592
0.163098
0.175745
0.193347
0.218988
0.258024
0.319875
0.420808
0.586566
0.850677
1.25326
1.83876
2.64037
3.62068
4.58067
5.18411
5.18493
4.74136
4.26123
3.96573
3.8267
3.75142
3.74514
3.8638
4.07846
4.2926
4.48184
4.66307
4.86481
5.09328
5.32728
5.53353
5.68033
5.71117
5.49635
4.79445
3.35843
1.82793
0.121336
0.124857
0.129221
0.134877
0.142574
0.153618
0.170401
0.197573
0.244698
0.331751
0.494367
0.761593
1.17319
1.79553
2.72533
4.02142
5.49274
6.45069
6.11501
5.01333
4.18516
3.8065
3.68537
3.6693
3.82426
4.15466
4.57364
4.82093
4.95261
5.00799
5.08979
5.18288
5.21424
5.11329
4.85162
4.387
3.65275
2.60472
1.53639
1.51977
0.106129
0.107257
0.108659
0.110484
0.112988
0.11664
0.122395
0.132494
0.153374
0.208134
0.392299
0.664434
1.0728
1.69644
2.67365
4.15539
6.02433
7.10424
6.70897
5.42399
4.21667
3.62719
3.34759
3.20977
2.53232
2.71864
3.4608
3.9739
4.0061
3.98593
3.93084
3.79358
3.54015
3.23192
2.82391
2.24683
1.5029
0.701452
0.480694
2.84093
)
;

boundaryField
{
    leftWall
    {
        Cmu             0.09;
        kappa           0.41;
        E               9.8;
        type            epsilonWallFunction;
        value           nonuniform 0();
    }
    rightWall
    {
        Cmu             0.09;
        kappa           0.41;
        E               9.8;
        type            epsilonWallFunction;
        value           nonuniform List<scalar> 
43
(
10.0736
9.44387
9.39667
9.38548
10.2124
10.9452
11.8227
11.8767
11.3733
10.8415
11.3869
13.8541
17.4242
21.0872
22.1731
22.2085
21.977
21.6778
21.3973
21.1703
21.0163
21.1358
21.4552
21.7615
22.0186
22.222
22.379
22.5012
22.5756
22.5066
22.1084
21.2228
19.8065
17.8063
15.6182
13.1634
10.4069
7.44011
4.73869
2.83463
1.82793
1.51977
2.84093
)
;
    }
    lowerWall
    {
        Cmu             0.09;
        kappa           0.41;
        E               9.8;
        type            epsilonWallFunction;
        value           nonuniform 0();
    }
    atmosphere
    {
        type            inletOutlet;
        inletValue      uniform 0.1;
        value           nonuniform List<scalar> 
45
(
0.1
0.1
0.1
0.1
0.1
0.1
0.1
0.1
0.1
0.1
0.1
0.1
0.1
0.1
0.1
0.392299
0.664434
1.0728
1.69644
2.67365
4.15539
6.02433
7.10424
6.70897
5.42399
4.21667
3.62719
3.34759
0.1
0.1
0.1
3.4608
3.9739
4.0061
3.98593
3.93084
3.79358
3.54015
3.23192
2.82391
2.24683
1.5029
0.701452
0.1
0.1
)
;
    }
    defaultFaces
    {
        type            empty;
    }
    procBoundary3to1
    {
        type            processor;
        value           nonuniform List<scalar> 
45
(
2.06571
2.48901
2.9773
3.54944
4.21223
5.01435
5.97679
7.0526
8.22597
9.47097
10.7426
11.9913
13.1761
14.2591
15.2045
15.9832
16.5821
16.9885
17.193
17.1851
16.9551
16.4872
15.7812
14.8534
13.7243
12.4519
11.1275
9.85412
8.69977
7.69933
6.85806
6.16438
5.5972
5.13082
4.74569
4.42766
4.16505
3.94973
3.77881
3.65962
3.61711
3.70915
4.02742
4.79962
9.94665
)
;
    }
    procBoundary3to2
    {
        type            processor;
        value           nonuniform List<scalar> 
43
(
1.80443
1.89601
1.97499
2.03742
2.08056
2.10299
2.10457
2.08628
2.04998
1.9982
1.93379
1.85975
1.77893
1.69391
1.60687
1.5195
1.43298
1.34801
1.26488
1.18357
1.10382
1.02527
0.947621
0.870687
0.794535
0.719519
0.646283
0.575715
0.508831
0.447309
0.391937
0.342863
0.299937
0.262778
0.23085
0.203542
0.180246
0.160421
0.14361
0.129488
0.117871
0.108711
0.102074
)
;
    }
}


// ************************************************************************* //
