/*--------------------------------*- C++ -*----------------------------------*\
| =========                 |                                                 |
| \\      /  F ield         | OpenFOAM: The Open Source CFD Toolbox           |
|  \\    /   O peration     | Version:  5.0                                   |
|   \\  /    A nd           | Web:      www.OpenFOAM.org                      |
|    \\/     M anipulation  |                                                 |
\*---------------------------------------------------------------------------*/
FoamFile
{
    version     2.0;
    format      ascii;
    class       volScalarField;
    location    "0.75";
    object      k;
}
// * * * * * * * * * * * * * * * * * * * * * * * * * * * * * * * * * * * * * //

dimensions      [0 2 -2 0 0 0 0];

internalField   nonuniform List<scalar> 
1935
(
0.526587
0.542263
0.556172
0.567737
0.576561
0.58242
0.58525
0.585123
0.582215
0.57678
0.569114
0.559529
0.548331
0.535799
0.522169
0.507628
0.492314
0.476315
0.459678
0.442422
0.424551
0.406068
0.386991
0.367368
0.34729
0.326894
0.306372
0.285957
0.265911
0.24663
0.228455
0.211507
0.19585
0.181493
0.168401
0.156508
0.145735
0.136004
0.127255
0.11945
0.112591
0.106717
0.1019
0.579901
0.637167
0.699809
0.767683
0.597151
0.655823
0.719651
0.788366
0.612131
0.671638
0.735997
0.804824
0.62421
0.683944
0.748171
0.816405
0.632977
0.692337
0.755799
0.822799
0.638231
0.696655
0.75878
0.823991
0.639958
0.696946
0.757239
0.8202
0.638297
0.693426
0.751481
0.811822
0.633505
0.686439
0.741937
0.799379
0.62592
0.676411
0.729127
0.783479
0.615926
0.663816
0.713613
0.76477
0.603919
0.649136
0.695964
0.743905
0.590282
0.632829
0.676719
0.721499
0.575357
0.615307
0.656359
0.698104
0.559431
0.596911
0.63528
0.674174
0.54273
0.577903
0.613785
0.65005
0.525409
0.55846
0.592074
0.625957
0.507563
0.538682
0.570249
0.602003
0.48923
0.518597
0.54833
0.578194
0.470409
0.498183
0.52627
0.554458
0.451077
0.477385
0.50398
0.530667
0.431203
0.456137
0.481351
0.506669
0.41077
0.43438
0.458282
0.482315
0.389791
0.412089
0.434703
0.457486
0.368324
0.389287
0.410597
0.432119
0.346486
0.366061
0.386016
0.406229
0.324453
0.342571
0.361098
0.379924
0.302461
0.319047
0.336063
0.353411
0.280786
0.295778
0.311206
0.326985
0.259811
0.273131
0.286886
0.30101
0.24
0.25169
0.263796
0.276267
0.221499
0.231631
0.242144
0.253004
0.204396
0.213066
0.222075
0.231398
0.188716
0.196042
0.203659
0.211552
0.174433
0.180546
0.186901
0.193491
0.161481
0.166514
0.171744
0.17717
0.149773
0.153854
0.158093
0.162493
0.139218
0.142462
0.145831
0.149333
0.129739
0.132244
0.134848
0.137558
0.121284
0.123132
0.125053
0.127057
0.113839
0.115096
0.116402
0.117768
0.107434
0.108154
0.108903
0.109686
0.102132
0.102365
0.102605
0.102856
0.844668
0.930957
1.02123
1.11373
1.20605
1.29496
1.37803
1.45304
1.51811
1.57166
1.61293
1.64181
1.65794
1.66121
1.65192
1.63009
1.5956
1.54899
1.49119
1.42354
1.34882
1.27083
1.19404
1.122
1.05658
0.998264
0.946715
0.901035
0.859544
0.820695
0.783327
0.746332
0.708706
0.669565
0.628163
0.584094
0.536405
0.477777
0.377226
0.190981
0.865736
0.951709
1.04075
1.13099
1.21952
1.30361
1.38092
1.44935
1.50709
1.55276
1.58583
1.60606
1.61318
1.60746
1.58955
1.55979
1.51873
1.46746
1.40741
1.34082
1.27021
1.1989
1.1302
1.06657
1.00917
0.958264
0.91345
0.873706
0.837462
0.803222
0.769789
0.736053
0.701035
0.663901
0.623958
0.580572
0.532697
0.472247
0.368734
0.183549
0.881738
0.966433
1.05323
1.14015
1.2242
1.303
1.37437
1.43637
1.48741
1.52634
1.55252
1.56555
1.56543
1.55279
1.52841
1.49301
1.44765
1.39385
1.33353
1.26921
1.20329
1.13851
1.07731
1.02131
0.97118
0.926926
0.887978
0.85328
0.821449
0.791138
0.761134
0.730326
0.697725
0.662447
0.623694
0.580658
0.531843
0.469895
0.367504
0.182517
0.892098
0.974696
1.05847
1.1414
1.22072
1.29418
1.3598
1.41583
1.46092
1.49406
1.51449
1.52181
1.5163
1.49872
1.46997
1.4311
1.38354
1.32916
1.27015
1.20903
1.14805
1.08941
1.03489
0.985568
0.941789
0.903301
0.869406
0.839068
0.811083
0.784224
0.757309
0.729239
0.699015
0.665684
0.628276
0.585727
0.536488
0.473848
0.372411
0.183889
0.896614
0.976475
1.0567
1.13524
1.20984
1.27816
1.33843
1.38909
1.42897
1.45715
1.47292
1.47602
1.46681
1.44608
1.41485
1.37444
1.32652
1.27315
1.21662
1.15932
1.10329
1.05031
1.0017
0.958179
0.919829
0.886257
0.856703
0.830184
0.805624
0.781889
0.757837
0.732394
0.704555
0.67333
0.637614
0.596069
0.547154
0.485668
0.389373
0.196102
0.895392
0.972048
1.04841
1.12252
1.1923
1.25577
1.31122
1.35716
1.39255
1.41662
1.42881
1.42896
1.41746
1.3951
1.36302
1.32267
1.27586
1.2247
1.17147
1.11835
1.06715
1.01936
0.975973
0.937465
0.903776
0.874433
0.848672
0.825567
0.804134
0.783313
0.761996
0.739104
0.713627
0.684551
0.650678
0.610644
0.562272
0.501595
0.401544
0.202888
0.888766
0.961883
1.03423
1.10395
1.16914
1.22801
1.27898
1.32075
1.35237
1.37316
1.3827
1.38095
1.3683
1.34556
1.31392
1.27489
1.23031
1.18226
1.13287
1.0841
1.03758
0.994526
0.955774
0.921647
0.89201
0.866377
0.844016
0.824059
0.805591
0.787613
0.769026
0.748716
0.725616
0.698699
0.666809
0.628279
0.579977
0.512569
0.414129
0.213787
0.87723
0.946579
1.01483
1.08023
1.14104
1.19563
1.24257
1.28068
1.30912
1.32731
1.33495
1.3321
1.31919
1.29703
1.26682
1.23005
1.1885
1.14413
1.09891
1.05456
1.01253
0.973895
0.939332
0.909093
0.883042
0.860734
0.841499
0.824537
0.809008
0.793939
0.778227
0.760725
0.740268
0.715695
0.68568
0.648117
0.598688
0.525582
0.417319
0.212577
0.861397
0.926828
0.990941
1.05212
1.10877
1.1594
1.2027
1.23763
1.26342
1.27961
1.286
1.28271
1.27021
1.24933
1.22121
1.1873
1.14926
1.10888
1.06793
1.02795
0.990209
0.955674
0.924939
0.898234
0.875454
0.856223
0.839959
0.825944
0.813397
0.801399
0.78885
0.774574
0.757268
0.735495
0.707528
0.670493
0.61851
0.53844
0.417116
0.206056
0.841956
0.903391
0.963384
1.02046
1.07314
1.12009
1.16011
1.19228
1.21591
1.23061
1.23626
1.23305
1.22147
1.20232
1.17671
1.14598
1.11166
1.07536
1.03866
1.0029
0.96924
0.938532
0.911333
0.887882
0.868131
0.85179
0.838383
0.827289
0.81776
0.808961
0.799843
0.789212
0.775631
0.757239
0.731748
0.695354
0.640863
0.550774
0.414143
0.200136
0.819637
0.877067
0.933
0.986093
1.03502
1.07855
1.11562
1.14538
1.16724
1.18087
1.1862
1.18346
1.17314
1.15602
1.13314
1.10572
1.07514
1.04286
1.01026
0.978531
0.948701
0.921556
0.897627
0.877181
0.860237
0.846601
0.8359
0.827624
0.82107
0.815431
0.8098
0.802948
0.793241
0.778375
0.755524
0.720638
0.664093
0.563401
0.411708
0.20993
0.795172
0.848658
0.90064
0.949914
0.995288
1.03565
1.07005
1.09773
1.11815
1.13103
1.13636
1.13437
1.12554
1.11061
1.09052
1.0664
1.03948
1.01104
0.982309
0.954351
0.928079
0.904219
0.88329
0.865592
0.851216
0.840059
0.831846
0.826155
0.822337
0.819612
0.817163
0.81367
0.807175
0.794985
0.774023
0.740784
0.683574
0.587166
0.441524
0.242018
0.769254
0.818927
0.867124
0.912774
0.954817
0.992264
1.02426
1.05012
1.06937
1.08179
1.08735
1.0863
1.07909
1.06641
1.0491
1.02817
1.00472
0.979876
0.954729
0.930233
0.907206
0.886323
0.868095
0.852859
0.840773
0.831819
0.825808
0.822377
0.820931
0.820697
0.820794
0.81977
0.815197
0.804242
0.783951
0.750816
0.699852
0.622612
0.50376
0.282005
0.742504
0.788563
0.833193
0.875454
0.914412
0.949193
0.979034
1.00333
1.02166
1.03382
1.03979
1.03981
1.03429
1.02384
1.00922
0.991316
0.971103
0.949565
0.927667
0.90629
0.886161
0.867913
0.852055
0.838959
0.828845
0.821776
0.817638
0.816124
0.81669
0.818537
0.82057
0.821148
0.817657
0.807438
0.788057
0.757205
0.712986
0.650321
0.548411
0.315229
0.715436
0.758135
0.799469
0.838617
0.874765
0.907145
0.935087
0.958053
0.975667
0.987736
0.994258
0.995422
0.991598
0.983317
0.971251
0.956175
0.938931
0.920388
0.901398
0.882765
0.865159
0.849179
0.835336
0.824033
0.815552
0.810031
0.807435
0.807523
0.809793
0.813444
0.817193
0.819127
0.81686
0.808139
0.79112
0.764499
0.727028
0.672534
0.574295
0.323608
0.688435
0.728074
0.76642
0.802764
0.8364
0.866662
0.89296
0.91482
0.931904
0.944033
0.951194
0.953542
0.951387
0.945184
0.93551
0.923032
0.908479
0.892607
0.876173
0.859909
0.844447
0.830362
0.818169
0.808308
0.801122
0.796827
0.795478
0.796906
0.800665
0.805948
0.811406
0.815099
0.814887
0.808824
0.795375
0.773314
0.740476
0.688578
0.588681
0.323499
0.66175
0.698651
0.734342
0.768211
0.799649
0.82808
0.85299
0.873959
0.890684
0.902993
0.910859
0.914395
0.913854
0.909611
0.90215
0.892035
0.87989
0.866371
0.852147
0.837895
0.824213
0.81166
0.800764
0.792006
0.785796
0.782437
0.782076
0.784638
0.789747
0.796624
0.803969
0.809978
0.812659
0.810163
0.800866
0.782985
0.75298
0.700869
0.596782
0.321122
0.635494
0.669986
0.703357
0.735081
0.764634
0.791519
0.815287
0.835568
0.852085
0.864672
0.873281
0.877987
0.878981
0.876564
0.871128
0.863143
0.853135
0.841669
0.829329
0.816763
0.804525
0.793169
0.783244
0.775276
0.769747
0.767057
0.76746
0.770988
0.777362
0.785882
0.795354
0.804113
0.810244
0.8118
0.806783
0.792598
0.764421
0.711098
0.602584
0.318174
0.609662
0.642057
0.673427
0.703319
0.731284
0.756888
0.779742
0.799515
0.815952
0.828889
0.838258
0.844095
0.846533
0.845798
0.842201
0.836121
0.827998
0.818312
0.807577
0.7964
0.785309
0.774856
0.765612
0.758154
0.753042
0.750778
0.751738
0.756081
0.763649
0.773858
0.785634
0.79741
0.807263
0.813025
0.812191
0.801336
0.77459
0.720026
0.607654
0.315455
0.584149
0.614726
0.644381
0.672723
0.699361
0.72392
0.746055
0.76547
0.781927
0.795262
0.805386
0.812298
0.816076
0.81688
0.814942
0.810562
0.804095
0.795949
0.786577
0.776546
0.766359
0.756564
0.747757
0.740569
0.735642
0.733588
0.734915
0.739926
0.748608
0.760513
0.774671
0.789568
0.803201
0.813119
0.816285
0.808521
0.783144
0.727707
0.612292
0.313248
0.558788
0.58778
0.615959
0.642983
0.668511
0.692214
0.713786
0.732956
0.749501
0.763254
0.774107
0.782025
0.787035
0.789237
0.788793
0.785927
0.780917
0.774098
0.765909
0.756839
0.747366
0.738039
0.729476
0.722363
0.717428
0.715397
0.716922
0.722465
0.732169
0.745725
0.762252
0.780247
0.797582
0.811498
0.818456
0.81364
0.789739
0.733947
0.616382
0.311699
0.533376
0.56096
0.587844
0.613726
0.638307
0.661293
0.682409
0.701407
0.718073
0.732236
0.743774
0.752617
0.758751
0.762218
0.763118
0.761605
0.757888
0.75224
0.745105
0.736863
0.727971
0.718975
0.710516
0.703331
0.698237
0.69608
0.697661
0.70361
0.714234
0.729356
0.748172
0.769157
0.790031
0.807731
0.81827
0.816311
0.794078
0.738531
0.619898
0.312705
0.507708
0.534003
0.559711
0.584567
0.608303
0.630655
0.651374
0.670227
0.68701
0.701549
0.713706
0.723385
0.730533
0.735142
0.737254
0.736955
0.734387
0.729876
0.723704
0.716205
0.707809
0.699056
0.690608
0.683254
0.677895
0.675502
0.677027
0.68327
0.694704
0.711283
0.732261
0.756072
0.780265
0.801491
0.815384
0.816202
0.795787
0.74095
0.622132
0.315781
0.481612
0.506672
0.531264
0.555147
0.57808
0.599825
0.620152
0.638844
0.655704
0.670556
0.683249
0.693665
0.701716
0.70735
0.710559
0.711359
0.709968
0.706544
0.701286
0.694486
0.686544
0.677991
0.669507
0.661929
0.656244
0.653541
0.654926
0.661365
0.673497
0.691398
0.71437
0.740788
0.768011
0.79253
0.809648
0.813197
0.794744
0.741034
0.622743
0.318729
0.454972
0.478797
0.502269
0.525172
0.547287
0.568396
0.588288
0.606759
0.623619
0.638691
0.651818
0.66286
0.6717
0.678241
0.682459
0.684454
0.684236
0.681874
0.677515
0.671403
0.663907
0.655546
0.647016
0.639199
0.633162
0.630111
0.631294
0.637841
0.650544
0.669595
0.694322
0.723064
0.75324
0.780932
0.80111
0.807347
0.791022
0.738839
0.621707
0.321181
0.427758
0.450294
0.472592
0.494454
0.51568
0.536074
0.555439
0.573586
0.590333
0.605505
0.61894
0.630484
0.639996
0.647459
0.65282
0.655991
0.656921
0.655616
0.652162
0.64675
0.639717
0.631568
0.623011
0.614972
0.608591
0.605179
0.606116
0.612674
0.625789
0.645753
0.671976
0.703003
0.735888
0.766503
0.789598
0.798543
0.78458
0.734379
0.619053
0.32309
0.400044
0.421197
0.442219
0.462932
0.483155
0.502709
0.521415
0.539095
0.555582
0.570702
0.584294
0.596284
0.60659
0.615043
0.6215
0.625821
0.627895
0.627659
0.625131
0.620451
0.613915
0.606016
0.597476
0.58926
0.582572
0.578813
0.579464
0.585914
0.599228
0.61978
0.647342
0.680247
0.715498
0.748792
0.774721
0.786481
0.775224
0.727585
0.614827
0.324523
0.372014
0.391664
0.411279
0.4307
0.449769
0.468327
0.48621
0.503235
0.519297
0.534299
0.548138
0.560646
0.571666
0.58102
0.58852
0.593973
0.597201
0.598065
0.59651
0.592612
0.586626
0.579033
0.570575
0.562262
0.555346
0.551285
0.55162
0.55781
0.571012
0.591898
0.620211
0.654213
0.691097
0.726841
0.755712
0.770522
0.762448
0.718144
0.60895
0.32559
0.343964
0.361981
0.380042
0.39801
0.415751
0.433137
0.450055
0.466427
0.482112
0.496989
0.510933
0.523798
0.535415
0.545587
0.554091
0.560681
0.565105
0.567142
0.566647
0.563625
0.558286
0.551104
0.542844
0.534571
0.527569
0.523318
0.523351
0.529116
0.541842
0.562427
0.590417
0.624078
0.661206
0.698532
0.730194
0.748653
0.744682
0.704894
0.600725
0.326186
0.316271
0.332554
0.348983
0.365442
0.381825
0.398028
0.413957
0.429523
0.444631
0.459178
0.473053
0.486124
0.498225
0.509151
0.518654
0.526437
0.532176
0.535548
0.536301
0.534358
0.529887
0.523355
0.515525
0.507515
0.500667
0.496463
0.496381
0.501899
0.514292
0.534249
0.561066
0.593333
0.629053
0.665185
0.697273
0.718722
0.719473
0.685451
0.588226
0.32546
0.289794
0.304312
0.319043
0.333899
0.348799
0.363664
0.378423
0.393009
0.407357
0.421394
0.435038
0.448185
0.46069
0.472362
0.482942
0.492098
0.499423
0.50447
0.506855
0.506419
0.503255
0.497727
0.490714
0.483368
0.477063
0.473225
0.47334
0.47893
0.491229
0.510655
0.536265
0.566649
0.599913
0.633161
0.662591
0.683176
0.686735
0.658486
0.569234
0.321671
0.264822
0.277572
0.290576
0.303773
0.317107
0.330526
0.343987
0.357453
0.370894
0.38428
0.397576
0.410726
0.423641
0.436171
0.44808
0.459014
0.46847
0.475832
0.480552
0.482282
0.480888
0.476869
0.471374
0.465296
0.45978
0.456295
0.456436
0.46176
0.473496
0.491797
0.515919
0.544437
0.575101
0.604781
0.630277
0.647989
0.651142
0.62579
0.543314
0.313173
0.241571
0.252595
0.263894
0.275431
0.287172
0.299095
0.311188
0.323451
0.335901
0.348563
0.361474
0.374666
0.388148
0.401868
0.415657
0.429137
0.441659
0.452352
0.460267
0.464677
0.465759
0.464241
0.460603
0.455621
0.450466
0.446887
0.446639
0.451212
0.461686
0.478135
0.499924
0.525642
0.553041
0.579063
0.600662
0.614781
0.61547
0.590162
0.511889
0.299296
0.220181
0.22957
0.239236
0.249164
0.259347
0.269791
0.280517
0.291571
0.303026
0.314989
0.327602
0.341041
0.355485
0.371058
0.387687
0.404924
0.421828
0.436928
0.448582
0.456454
0.460779
0.461414
0.458409
0.453117
0.447508
0.443519
0.442758
0.446448
0.45537
0.469556
0.48836
0.510407
0.533632
0.555394
0.572801
0.582648
0.57951
0.552182
0.475646
0.279084
0.200707
0.208587
0.216737
0.225163
0.233881
0.242926
0.252361
0.262282
0.272836
0.28424
0.296794
0.310895
0.326993
0.34545
0.366266
0.388745
0.411279
0.431402
0.447256
0.458651
0.464973
0.465188
0.460706
0.454073
0.447589
0.443085
0.441909
0.444902
0.452465
0.46446
0.480162
0.498248
0.516841
0.533548
0.545639
0.549869
0.541004
0.508653
0.428812
0.255855
0.183121
0.189643
0.196425
0.203491
0.210882
0.218666
0.226949
0.235888
0.245727
0.256829
0.269718
0.285107
0.303829
0.326497
0.352995
0.382039
0.4107
0.435584
0.455137
0.468063
0.472842
0.470138
0.463115
0.454658
0.447137
0.442294
0.441085
0.443816
0.450426
0.460512
0.473187
0.487129
0.500543
0.511263
0.516727
0.513691
0.497098
0.457641
0.376883
0.228559
0.167328
0.172651
0.178224
0.18409
0.190315
0.197004
0.204315
0.212475
0.221851
0.232998
0.24674
0.264189
0.286562
0.314635
0.347944
0.384034
0.418468
0.447209
0.468231
0.479521
0.480018
0.472907
0.462492
0.451754
0.443041
0.437865
0.436767
0.439483
0.445382
0.453687
0.463387
0.473093
0.481026
0.485156
0.483181
0.47215
0.447718
0.403385
0.32986
0.195821
0.153192
0.157465
0.16198
0.166798
0.17201
0.177757
0.184248
0.191806
0.200934
0.212415
0.227421
0.247511
0.27429
0.308561
0.349282
0.3925
0.432106
0.463479
0.483521
0.489994
0.484066
0.471371
0.456974
0.443589
0.433253
0.427247
0.425734
0.4281
0.433423
0.440275
0.447137
0.452577
0.455083
0.45306
0.444695
0.427996
0.400878
0.360207
0.297731
0.157072
0.140555
0.1439
0.147477
0.151361
0.155669
0.160577
0.166353
0.173412
0.18241
0.194371
0.210833
0.233796
0.26521
0.305925
0.354406
0.405237
0.450372
0.483354
0.499809
0.498505
0.483844
0.464529
0.446208
0.430152
0.417733
0.410403
0.408319
0.410532
0.415372
0.4208
0.425209
0.427504
0.426689
0.421795
0.412019
0.396489
0.373736
0.339081
0.276652
0.116631
0.129284
0.131791
0.13451
0.137528
0.140976
0.14506
0.150104
0.156618
0.165417
0.177787
0.195629
0.221302
0.25706
0.304103
0.361092
0.421673
0.474792
0.50952
0.519105
0.50553
0.479342
0.453033
0.431487
0.413686
0.400415
0.39389
0.393744
0.397535
0.402632
0.407408
0.411155
0.413299
0.413023
0.409418
0.401602
0.388111
0.36534
0.324626
0.247217
0.082932
0.119293
0.121024
0.12293
0.125093
0.127646
0.130805
0.134924
0.140599
0.148839
0.161309
0.180391
0.208487
0.247922
0.300759
0.367535
0.442936
0.51142
0.55137
0.548639
0.513387
0.471418
0.43898
0.416613
0.399774
0.389492
0.389343
0.396989
0.405069
0.410508
0.413758
0.416108
0.417514
0.416385
0.410578
0.398272
0.377044
0.342132
0.285187
0.196481
0.061771
0.110561
0.111562
0.112677
0.113966
0.115534
0.117557
0.120354
0.124532
0.131318
0.143208
0.164142
0.195002
0.237472
0.294756
0.371361
0.46722
0.565381
0.623615
0.600673
0.526584
0.461835
0.421792
0.397206
0.379921
0.375824
0.387377
0.409024
0.422457
0.425205
0.420597
0.415408
0.409543
0.399666
0.382437
0.35622
0.319242
0.269256
0.204829
0.134253
0.0543029
0.103136
0.103455
0.103811
0.104226
0.10474
0.105426
0.10643
0.108094
0.111373
0.119729
0.14726
0.181308
0.22577
0.284949
0.366157
0.474676
0.595845
0.658876
0.632926
0.549012
0.461662
0.406704
0.366841
0.328849
0.251743
0.252642
0.307445
0.364751
0.372111
0.36633
0.354852
0.337785
0.314698
0.289167
0.258616
0.21947
0.172799
0.126276
0.102598
0.083523
)
;

boundaryField
{
    leftWall
    {
        type            kqRWallFunction;
        value           nonuniform 0();
    }
    rightWall
    {
        type            kqRWallFunction;
        value           nonuniform List<scalar> 
43
(
0.190981
0.183549
0.182517
0.183889
0.196102
0.202888
0.213787
0.212577
0.206056
0.200136
0.20993
0.242018
0.282005
0.315229
0.323608
0.323499
0.321122
0.318174
0.315455
0.313248
0.311699
0.312705
0.315781
0.318729
0.321181
0.32309
0.324523
0.32559
0.326186
0.32546
0.321671
0.313173
0.299296
0.279084
0.255855
0.228559
0.195821
0.157072
0.116631
0.082932
0.061771
0.0543029
0.083523
)
;
    }
    lowerWall
    {
        type            kqRWallFunction;
        value           nonuniform 0();
    }
    atmosphere
    {
        type            inletOutlet;
        inletValue      uniform 0.1;
        value           nonuniform List<scalar> 
45
(
0.1
0.1
0.1
0.1
0.1
0.1
0.1
0.1
0.1
0.1
0.1
0.1
0.1
0.1
0.1
0.14726
0.181308
0.22577
0.284949
0.366157
0.474676
0.595845
0.658876
0.632926
0.549012
0.461662
0.406704
0.366841
0.1
0.1
0.1
0.307445
0.364751
0.372111
0.36633
0.354852
0.337785
0.314698
0.289167
0.258616
0.21947
0.172799
0.126276
0.1
0.1
)
;
    }
    defaultFaces
    {
        type            empty;
    }
    procBoundary3to1
    {
        type            processor;
        value           nonuniform List<scalar> 
45
(
0.509867
0.561215
0.616592
0.677458
0.743785
0.819519
0.905056
0.995363
1.08882
1.18338
1.27613
1.36421
1.44551
1.51822
1.58069
1.63168
1.67079
1.69759
1.71184
1.71324
1.7015
1.67586
1.63609
1.58261
1.51585
1.43805
1.35389
1.26924
1.18841
1.11414
1.04745
0.98823
0.935513
0.887688
0.84336
0.801395
0.760664
0.720084
0.678618
0.635481
0.590155
0.541435
0.482039
0.384129
0.19292
)
;
    }
    procBoundary3to2
    {
        type            processor;
        value           nonuniform List<scalar> 
43
(
0.477557
0.491592
0.504282
0.515118
0.52373
0.529887
0.533491
0.534556
0.53319
0.529567
0.523903
0.516434
0.507395
0.497003
0.485448
0.472883
0.459426
0.445161
0.430141
0.414403
0.397975
0.380888
0.363193
0.344966
0.326323
0.307419
0.288453
0.269653
0.251266
0.233686
0.217138
0.201721
0.187482
0.174415
0.162482
0.151619
0.141757
0.132833
0.124799
0.117635
0.111353
0.106004
0.101669
)
;
    }
}


// ************************************************************************* //
