/*--------------------------------*- C++ -*----------------------------------*\
| =========                 |                                                 |
| \\      /  F ield         | OpenFOAM: The Open Source CFD Toolbox           |
|  \\    /   O peration     | Version:  5.0                                   |
|   \\  /    A nd           | Web:      www.OpenFOAM.org                      |
|    \\/     M anipulation  |                                                 |
\*---------------------------------------------------------------------------*/
FoamFile
{
    version     2.0;
    format      ascii;
    class       volScalarField;
    location    "0.75";
    object      nut;
}
// * * * * * * * * * * * * * * * * * * * * * * * * * * * * * * * * * * * * * //

dimensions      [0 2 -1 0 0 0 0];

internalField   nonuniform List<scalar> 
1935
(
0.0114128
0.0115233
0.0116525
0.011795
0.0119459
0.0121018
0.0122596
0.0124175
0.0125737
0.0127264
0.0128739
0.0130133
0.0131413
0.0132532
0.013344
0.0134077
0.0134387
0.013432
0.0133838
0.0132924
0.0131587
0.0129857
0.0127791
0.0125466
0.0122971
0.0120404
0.0117859
0.0115425
0.0113169
0.0111117
0.0109254
0.0107556
0.0105985
0.0104496
0.0103049
0.0101613
0.0100172
0.00987254
0.009728
0.00958372
0.00943715
0.00928154
0.00910586
0.0114906
0.011609
0.0117675
0.0119631
0.011614
0.0117438
0.0119119
0.012115
0.0117531
0.0118905
0.0120638
0.0122697
0.0119022
0.0120434
0.0122177
0.0124219
0.0120567
0.0121982
0.0123699
0.0125684
0.0122134
0.0123522
0.0125179
0.0127076
0.01237
0.0125038
0.0126612
0.0128395
0.0125254
0.0126527
0.0128001
0.0129654
0.0126787
0.012799
0.0129357
0.0130872
0.0128293
0.0129431
0.0130695
0.0132074
0.0129763
0.0130851
0.0132026
0.0133283
0.0131178
0.0132242
0.0133354
0.0134513
0.0132511
0.0133585
0.0134668
0.0135765
0.013372
0.0134844
0.0135942
0.0137019
0.0134753
0.0135969
0.0137126
0.0138234
0.0135547
0.0136893
0.0138155
0.0139343
0.0136037
0.0137542
0.0138949
0.0140261
0.0136158
0.0137843
0.0139421
0.0140893
0.013586
0.0137728
0.013949
0.0141142
0.0135111
0.0137151
0.0139091
0.0140927
0.0133903
0.0136088
0.0138188
0.0140193
0.0132259
0.0134548
0.0136772
0.0138917
0.0130226
0.0132572
0.0134874
0.0137115
0.0127878
0.0130226
0.0132553
0.013484
0.0125304
0.0127599
0.0129895
0.0132172
0.0122605
0.0124793
0.0127003
0.0129215
0.0119882
0.0121914
0.0123987
0.0126079
0.0117231
0.0119065
0.0120955
0.0122877
0.0114731
0.0116334
0.0118001
0.011971
0.0112425
0.0113779
0.0115197
0.011666
0.0110303
0.0111398
0.011255
0.0113741
0.0108351
0.0109185
0.0110064
0.0110968
0.0106537
0.0107118
0.0107725
0.0108339
0.0104825
0.0105166
0.0105511
0.010584
0.0103176
0.0103298
0.0103399
0.0103457
0.0101563
0.0101491
0.0101373
0.0101184
0.00999745
0.00997375
0.00994314
0.0099028
0.00984141
0.00980482
0.00975931
0.00970174
0.00968963
0.00964465
0.00958928
0.00952016
0.00954324
0.00949558
0.00943692
0.00936379
0.00940066
0.00935725
0.00930346
0.00923602
0.00925552
0.00922408
0.00918463
0.00913462
0.00909591
0.00908367
0.00906807
0.00904801
0.0122085
0.0124977
0.012812
0.0131417
0.0134768
0.0138063
0.0141196
0.0144075
0.0146628
0.0148798
0.0150551
0.0151874
0.0152766
0.0153248
0.0153372
0.0153192
0.0152761
0.0152136
0.0151375
0.0150526
0.0149651
0.0148839
0.0148128
0.0147475
0.0146757
0.0145801
0.0144421
0.0142439
0.0139688
0.0136012
0.0131279
0.0125356
0.0118092
0.0109285
0.00986373
0.00857805
0.00702353
0.00512468
0.00272092
0.000325863
0.0123658
0.0126573
0.0129703
0.013295
0.0136217
0.0139385
0.0142353
0.0145039
0.0147376
0.0149318
0.0150841
0.0151937
0.0152618
0.0152925
0.0152922
0.0152677
0.0152257
0.0151731
0.0151164
0.0150583
0.0150059
0.0149639
0.0149304
0.0148961
0.0148447
0.014757
0.0146139
0.0143987
0.0140969
0.0136967
0.013188
0.0125605
0.0118012
0.010892
0.00980586
0.00850267
0.00693706
0.00503554
0.00265325
0.000321068
0.0125202
0.0128081
0.0131139
0.0134283
0.0137411
0.014041
0.0143186
0.0145665
0.014779
0.0149525
0.0150849
0.0151759
0.015228
0.015247
0.0152401
0.0152148
0.0151791
0.0151404
0.0151051
0.0150754
0.0150567
0.0150496
0.0150476
0.0150373
0.0149998
0.0149151
0.0147645
0.0145326
0.0142078
0.0137809
0.0132445
0.0125901
0.0118062
0.0108756
0.00977235
0.00845797
0.00688066
0.00496786
0.00259437
0.000319064
0.0126675
0.0129469
0.0132409
0.0135404
0.0138357
0.0141161
0.0143731
0.0146001
0.0147924
0.0149469
0.015062
0.0151381
0.0151789
0.0151908
0.0151816
0.0151595
0.0151332
0.0151103
0.0150963
0.0150935
0.0151046
0.0151268
0.0151501
0.0151582
0.0151309
0.015048
0.0148917
0.0146483
0.0143078
0.0138633
0.0133087
0.0126367
0.0118368
0.0108926
0.00977858
0.00845685
0.00687528
0.00495277
0.00255379
0.000324265
0.0128051
0.0130719
0.0133506
0.0136321
0.0139073
0.0141668
0.0144028
0.0146093
0.0147824
0.0149196
0.0150197
0.0150842
0.0151173
0.0151256
0.0151171
0.0151006
0.0150849
0.0150776
0.0150833
0.015104
0.0151403
0.0151864
0.0152301
0.0152533
0.0152356
0.0151569
0.0150001
0.0147526
0.0144058
0.0139533
0.0133896
0.0127082
0.0118991
0.0109467
0.00982598
0.0084999
0.00692431
0.00501957
0.00266193
0.000338904
0.012932
0.0131832
0.0134438
0.0137053
0.0139591
0.014197
0.014412
0.0145989
0.014754
0.0148754
0.0149629
0.0150185
0.0150464
0.0150535
0.0150477
0.015038
0.0150329
0.0150397
0.0150625
0.0151029
0.0151596
0.0152253
0.0152862
0.0153236
0.0153171
0.0152469
0.0150964
0.0148533
0.0145089
0.0140571
0.0134922
0.0128073
0.0119926
0.0110325
0.00990209
0.00857302
0.00699826
0.00510227
0.00271111
0.000338479
0.0130491
0.0132823
0.0135229
0.0137631
0.013995
0.0142113
0.0144058
0.0145739
0.0147124
0.0148199
0.0148968
0.0149454
0.0149702
0.0149777
0.0149759
0.0149732
0.014978
0.014997
0.0150341
0.0150903
0.0151635
0.0152454
0.0153217
0.0153736
0.0153808
0.015324
0.0151863
0.0149552
0.0146211
0.0141772
0.013617
0.0129327
0.0121131
0.0111428
0.00999976
0.00865469
0.00706676
0.00515446
0.00280279
0.000347927
0.0131584
0.0133721
0.0135915
0.0138097
0.0140196
0.0142147
0.0143896
0.01454
0.0146635
0.0147589
0.0148271
0.0148705
0.0148938
0.0149031
0.0149059
0.0149103
0.014924
0.0149533
0.0150019
0.0150706
0.0151567
0.0152518
0.0153418
0.0154085
0.0154318
0.0153923
0.0152727
0.0150595
0.0147421
0.014312
0.0137615
0.0130815
0.0122593
0.011277
0.0101097
0.008726
0.00708858
0.00512518
0.00275367
0.000342435
0.0132629
0.0134563
0.0136541
0.0138503
0.0140385
0.0142131
0.0143693
0.0145035
0.0146134
0.0146985
0.0147597
0.0147996
0.0148227
0.0148348
0.0148429
0.0148544
0.0148765
0.014915
0.0149732
0.0150521
0.0151486
0.0152545
0.0153565
0.0154372
0.015477
0.0154564
0.0153578
0.0151662
0.0148697
0.0144582
0.0139222
0.0132508
0.0124287
0.0114337
0.0102343
0.00878957
0.00706691
0.00502119
0.0026279
0.000335992
0.013366
0.0135394
0.013716
0.0138906
0.014058
0.0142131
0.0143518
0.0144711
0.0145691
0.0146453
0.0147011
0.014739
0.0147631
0.014779
0.014793
0.0148119
0.0148421
0.014889
0.0149554
0.0150424
0.0151469
0.0152612
0.0153729
0.0154656
0.0155206
0.0155186
0.0154414
0.0152729
0.0149996
0.0146098
0.0140924
0.0134344
0.012618
0.0116153
0.010385
0.00886608
0.00703433
0.00485359
0.00241135
0.000332511
0.013471
0.0136257
0.0137823
0.0139367
0.0140845
0.0142215
0.0143443
0.0144502
0.0145377
0.0146069
0.0146587
0.0146958
0.0147221
0.0147425
0.0147629
0.0147893
0.0148273
0.0148817
0.014955
0.0150479
0.0151576
0.0152772
0.0153954
0.015497
0.0155643
0.0155784
0.0155208
0.0153747
0.0151251
0.0147586
0.0142631
0.0136239
0.0128208
0.0118219
0.0105778
0.00901209
0.00706925
0.00470192
0.00212616
0.000348325
0.0135806
0.0137191
0.0138579
0.0139942
0.0141244
0.0142452
0.0143539
0.0144482
0.0145271
0.0145907
0.01464
0.0146776
0.0147069
0.0147325
0.0147594
0.014793
0.0148382
0.0148988
0.014977
0.0150732
0.0151849
0.0153059
0.0154262
0.0155322
0.0156072
0.0156333
0.015592
0.0154657
0.0152384
0.0148955
0.0144238
0.0138078
0.013026
0.0120455
0.0108177
0.00927571
0.0073113
0.00489042
0.0021982
0.000380504
0.013696
0.0138217
0.0139462
0.0140675
0.0141829
0.0142902
0.0143871
0.0144721
0.0145443
0.014604
0.0146523
0.0146914
0.0147245
0.0147555
0.0147888
0.0148289
0.0148798
0.0149446
0.0150251
0.0151211
0.0152307
0.0153484
0.0154657
0.0155704
0.0156476
0.0156802
0.0156502
0.0155398
0.0153321
0.0150117
0.0145643
0.0139742
0.0132193
0.012269
0.0110815
0.00960141
0.00776175
0.00549043
0.00279554
0.000410775
0.0138162
0.013934
0.0140485
0.0141588
0.0142634
0.0143605
0.0144487
0.0145269
0.0145948
0.0146525
0.0147013
0.014743
0.0147803
0.0148166
0.0148554
0.0149005
0.014955
0.0150213
0.0151006
0.0151923
0.0152948
0.0154037
0.015512
0.0156092
0.0156822
0.0157152
0.015691
0.0155918
0.0154004
0.0151005
0.014677
0.0141134
0.0133883
0.0124735
0.0113317
0.00991184
0.00814518
0.00593139
0.00315974
0.000424108
0.0139378
0.014053
0.0141631
0.0142675
0.0143658
0.0144569
0.0145402
0.014615
0.0146811
0.014739
0.0147896
0.0148347
0.0148765
0.0149175
0.0149605
0.0150084
0.0150636
0.0151277
0.0152014
0.0152839
0.0153739
0.0154682
0.0155612
0.0156444
0.0157066
0.0157337
0.0157095
0.0156168
0.015438
0.0151565
0.0147559
0.0142187
0.0135237
0.0126437
0.0115404
0.0101586
0.00841604
0.00618729
0.00332075
0.000425066
0.0140544
0.0141732
0.0142846
0.014389
0.0144863
0.0145763
0.0146589
0.0147338
0.0148012
0.0148615
0.0149156
0.0149647
0.0150107
0.0150553
0.0151006
0.0151486
0.0152009
0.0152585
0.0153218
0.0153897
0.0154616
0.0155352
0.0156067
0.0156696
0.0157148
0.0157301
0.0157006
0.0156098
0.0154403
0.0151746
0.0147956
0.0142843
0.0136188
0.0127698
0.0116959
0.0103347
0.00859329
0.00633491
0.00340637
0.0004241
0.0141572
0.0142854
0.0144043
0.0145144
0.0146164
0.0147105
0.0147969
0.0148758
0.0149475
0.0150125
0.0150713
0.015125
0.0151746
0.0152214
0.0152667
0.0153115
0.015357
0.0154036
0.0154514
0.0154994
0.0155475
0.0155949
0.0156393
0.0156762
0.0156989
0.0156971
0.0156578
0.0155652
0.015402
0.0151502
0.0147914
0.0143053
0.0136678
0.0128468
0.0117968
0.0104504
0.00870863
0.00643067
0.00346242
0.000422293
0.0142357
0.0143784
0.0145101
0.0146315
0.0147434
0.0148465
0.0149412
0.0150278
0.0151068
0.0151784
0.0152431
0.0153014
0.0153539
0.0154012
0.0154438
0.0154822
0.0155168
0.0155479
0.0155756
0.0155987
0.0156181
0.0156344
0.0156467
0.0156531
0.0156487
0.0156258
0.015573
0.0154757
0.0153168
0.0150776
0.0147383
0.0142769
0.0136668
0.012873
0.0118463
0.0105162
0.00878088
0.00649699
0.00350578
0.000420297
0.0142789
0.0144398
0.0145883
0.0147254
0.0148517
0.0149679
0.0150746
0.015172
0.0152606
0.0153405
0.0154118
0.0154746
0.015529
0.0155749
0.0156123
0.0156411
0.0156613
0.015673
0.0156761
0.0156703
0.0156571
0.0156382
0.0156149
0.015587
0.0155522
0.0155052
0.0154365
0.0153327
0.0151772
0.0149504
0.0146311
0.0141951
0.0136133
0.0128479
0.0118472
0.0105385
0.00881848
0.00654146
0.00354163
0.000418561
0.0142768
0.0144577
0.0146255
0.0147809
0.0149245
0.0150566
0.0151778
0.0152882
0.015388
0.0154771
0.0155553
0.0156221
0.0156772
0.0157199
0.0157498
0.0157663
0.0157691
0.0157581
0.0157333
0.0156952
0.0156464
0.0155897
0.015528
0.0154635
0.0153962
0.0153232
0.0152374
0.0151268
0.014975
0.0147618
0.0144641
0.0140557
0.0135049
0.0127713
0.0118011
0.0105201
0.00882404
0.00656496
0.00356947
0.000417149
0.0142219
0.0144225
0.01461
0.0147846
0.0149464
0.0150956
0.0152323
0.0153566
0.0154682
0.0155666
0.0156512
0.0157212
0.0157756
0.0158135
0.0158338
0.0158357
0.0158186
0.0157823
0.015727
0.0156544
0.0155677
0.0154713
0.0153697
0.0152671
0.0151663
0.0150669
0.0149642
0.0148478
0.0147016
0.0145046
0.0142321
0.013855
0.0133394
0.0126424
0.0117083
0.0104616
0.00879694
0.00656483
0.00358557
0.00041606
0.0141101
0.0143284
0.0145339
0.0147264
0.0149056
0.0150713
0.0152231
0.0153606
0.0154832
0.0155901
0.01568
0.0157518
0.015804
0.0158352
0.0158439
0.015829
0.0157896
0.0157257
0.0156379
0.0155289
0.015403
0.0152657
0.0151233
0.0149824
0.0148483
0.0147234
0.0146054
0.0144857
0.0143487
0.0141724
0.01393
0.0135898
0.0131149
0.0124603
0.0115683
0.0103621
0.0087348
0.00653578
0.003581
0.000416383
0.0139417
0.0141737
0.0143939
0.0146015
0.0147955
0.0149753
0.0151401
0.0152889
0.0154207
0.015534
0.0156273
0.0156988
0.0157465
0.0157686
0.0157632
0.0157289
0.0156647
0.0155705
0.0154482
0.0153012
0.0151349
0.014956
0.0147728
0.0145941
0.014428
0.0142798
0.0141498
0.0140312
0.0139087
0.0137594
0.0135537
0.0132571
0.0128296
0.0122235
0.0113795
0.0102205
0.0086392
0.00648142
0.00355913
0.000418294
0.0137209
0.0139616
0.0141917
0.0144099
0.0146147
0.0148049
0.0149792
0.015136
0.0152738
0.0153905
0.015484
0.015552
0.0155921
0.0156017
0.0155786
0.0155211
0.0154284
0.0153012
0.015142
0.0149552
0.0147471
0.0145263
0.0143028
0.014088
0.0138927
0.013725
0.013588
0.0134766
0.0133758
0.0132612
0.0131003
0.012855
0.0124814
0.0119325
0.0111477
0.0100462
0.0085182
0.00640839
0.00352691
0.000420144
0.013455
0.0136986
0.0139331
0.0141565
0.014367
0.0145628
0.0147419
0.0149022
0.0150414
0.0151571
0.0152464
0.0153063
0.0153338
0.0153257
0.0152796
0.0151939
0.0150684
0.0149043
0.0147049
0.0144756
0.0142245
0.0139617
0.0136997
0.0134521
0.0132321
0.0130509
0.0129138
0.0128175
0.012747
0.012676
0.0125681
0.012382
0.0120761
0.0115965
0.0108789
0.00984118
0.0083728
0.00631789
0.00348588
0.00042165
0.0131543
0.0133945
0.0136271
0.0138498
0.0140601
0.0142555
0.0144337
0.0145917
0.0147267
0.0148354
0.0149142
0.0149594
0.0149672
0.0149343
0.0148585
0.0147383
0.0145738
0.0143673
0.0141232
0.0138489
0.013554
0.013251
0.0129542
0.0126793
0.0124419
0.0122553
0.0121271
0.0120552
0.0120245
0.0120062
0.0119611
0.0118501
0.0116218
0.0112189
0.0105749
0.0096068
0.0082039
0.00621066
0.00343664
0.000422771
0.0128298
0.0130603
0.0132847
0.0135001
0.0137037
0.0138923
0.0140627
0.0142115
0.014335
0.0144289
0.0144888
0.0145104
0.0144899
0.0144236
0.0143093
0.0141459
0.0139346
0.0136793
0.0133864
0.0130654
0.0127284
0.0123897
0.0120654
0.0117726
0.0115283
0.0113472
0.0112382
0.0112005
0.0112187
0.0112612
0.011294
0.0112668
0.0111235
0.0108032
0.0102378
0.00934405
0.00801193
0.00608701
0.00337948
0.000423539
0.0124931
0.0127078
0.0129175
0.0131189
0.0133086
0.013483
0.013638
0.0137692
0.013872
0.0139414
0.0139726
0.0139605
0.0139008
0.01379
0.0136262
0.0134096
0.0131434
0.0128338
0.0124902
0.0121247
0.0117517
0.0113872
0.0110481
0.0107516
0.0105146
0.0103521
0.0102735
0.0102785
0.0103521
0.0104666
0.0105824
0.0106431
0.0105877
0.0103528
0.00986901
0.00905278
0.00779593
0.00594606
0.00331414
0.000424011
0.0121548
0.0123478
0.0125364
0.012717
0.0128855
0.0130374
0.0131679
0.0132719
0.0133438
0.0133781
0.0133688
0.0133105
0.0131988
0.0130307
0.0128058
0.0125267
0.0121997
0.0118345
0.011444
0.0110434
0.0106487
0.010276
0.0099416
0.00966082
0.00944875
0.00931903
0.00928057
0.0093337
0.00946493
0.00965202
0.00984828
0.00999236
0.01002
0.00986743
0.00946418
0.00872719
0.00754983
0.00578278
0.00323806
0.000424163
0.0118238
0.0119894
0.0121506
0.0123032
0.0124424
0.0125631
0.0126598
0.0127263
0.0127562
0.0127428
0.0126798
0.0125617
0.0123845
0.0121471
0.0118518
0.0115052
0.011118
0.0107047
0.0102819
0.00986664
0.00947473
0.00912044
0.00881641
0.00857407
0.00840514
0.00832111
0.00833001
0.00843351
0.00862101
0.00887126
0.00913434
0.00934663
0.00944198
0.00935548
0.00901991
0.0083565
0.00726028
0.00558455
0.00314342
0.000423574
0.0115026
0.0116365
0.0117649
0.011883
0.0119856
0.0120669
0.0121202
0.0121384
0.0121143
0.0120404
0.0119104
0.0117193
0.0114652
0.0111501
0.0107814
0.0103715
0.00993714
0.0094975
0.00907143
0.00867509
0.00832042
0.00801587
0.00776884
0.00758558
0.00747425
0.00744405
0.00750276
0.00765362
0.0078889
0.00818654
0.00849563
0.00875254
0.00889136
0.00884726
0.00855489
0.00794281
0.00691776
0.00533801
0.00301946
0.00042122
0.0111937
0.0112924
0.0113834
0.0114616
0.0115209
0.0115547
0.0115553
0.0115149
0.0114252
0.0112789
0.01107
0.0107959
0.0104586
0.0100661
0.00963299
0.00917935
0.0087281
0.00830079
0.0079143
0.00757847
0.00729605
0.00706803
0.00689682
0.00678472
0.00673624
0.00675927
0.00686171
0.0070474
0.00731374
0.00763435
0.00796137
0.00823444
0.00838896
0.0083606
0.00808763
0.00750654
0.0065349
0.00504385
0.00286154
0.00041592
0.0108978
0.010959
0.0110094
0.0110433
0.0110537
0.0110331
0.010973
0.0108646
0.0106996
0.0104713
0.0101759
0.00981534
0.00939832
0.00894186
0.00847018
0.00801111
0.00759028
0.00722553
0.00692392
0.00668242
0.00649432
0.00635568
0.00626401
0.00621968
0.00622628
0.00629199
0.00642509
0.00662941
0.00690193
0.00721631
0.00752943
0.00778612
0.00792609
0.00788857
0.00761578
0.00705028
0.00611918
0.0047106
0.00267467
0.000407039
0.010615
0.0106378
0.0106458
0.0106324
0.0105899
0.0105098
0.0103828
0.0101998
0.00995293
0.00963763
0.00925489
0.00881392
0.00833393
0.00784371
0.00737715
0.00696541
0.00662861
0.00637096
0.00618184
0.00604684
0.00595367
0.00589428
0.00586476
0.0058677
0.00591067
0.00600283
0.00615114
0.00635644
0.00661184
0.00689388
0.00716496
0.0073765
0.00747466
0.00740508
0.00711506
0.00655212
0.00565269
0.00432455
0.00245023
0.000393677
0.0103449
0.01033
0.0102955
0.0102338
0.0101366
0.00999426
0.00979703
0.00953606
0.00920534
0.00880451
0.00834214
0.00783856
0.00732646
0.00684704
0.00643911
0.00612705
0.0059138
0.0057819
0.005705
0.0056619
0.0056384
0.00562561
0.00562584
0.00564853
0.00570488
0.00580417
0.00595059
0.00613937
0.0063595
0.00659067
0.00680051
0.00694712
0.00698352
0.00686199
0.00653544
0.00595659
0.00506961
0.00379848
0.00207032
0.000377224
0.0100882
0.0100377
0.00996224
0.00985359
0.00970217
0.00949768
0.00923016
0.00889196
0.00848051
0.00800233
0.00747699
0.00693913
0.00643532
0.00601565
0.00571395
0.00553461
0.00545415
0.00543478
0.00544365
0.00545683
0.00546085
0.0054556
0.0054527
0.00546696
0.00551202
0.0055966
0.00572124
0.00587576
0.0060463
0.00621401
0.00635028
0.00641936
0.00638125
0.00619477
0.00581874
0.00521244
0.00433181
0.00313597
0.00165574
0.000357167
0.00984664
0.00976428
0.00965167
0.00949949
0.00929715
0.00903348
0.00869849
0.00828716
0.0078021
0.00725966
0.00669401
0.00615649
0.00570566
0.00538781
0.00521737
0.00517167
0.00520304
0.00526259
0.0053157
0.00534085
0.00533102
0.00529785
0.00526115
0.00523989
0.00524921
0.0052968
0.00538062
0.00548761
0.00560116
0.00570094
0.00576071
0.00574978
0.00563451
0.00538071
0.00495601
0.00433248
0.00349152
0.00244804
0.00131357
0.000331619
0.00962442
0.00951565
0.0093716
0.00918189
0.00893492
0.00861913
0.00822555
0.00775189
0.00720812
0.00662257
0.00604474
0.00553931
0.00516764
0.00496306
0.00491639
0.00497981
0.00508885
0.00519076
0.00525031
0.0052493
0.00519198
0.00510242
0.00500754
0.00492861
0.00488128
0.00487288
0.00490025
0.00494995
0.00500383
0.00503749
0.00502515
0.00494123
0.00476004
0.00445795
0.00401641
0.00342876
0.00271131
0.00191199
0.00110716
0.000298441
0.00942841
0.00930137
0.00913506
0.00891803
0.00863761
0.00828163
0.00784183
0.00731948
0.0067325
0.00612171
0.00555044
0.00509129
0.0048009
0.00469651
0.00474961
0.00489505
0.00505662
0.00517511
0.00521277
0.0051572
0.00502683
0.00486084
0.0046939
0.00454582
0.00443102
0.00435788
0.00432421
0.00431709
0.00431547
0.00429186
0.00422343
0.00409225
0.00388322
0.00358564
0.00319751
0.00272791
0.00219809
0.00163196
0.00102902
0.00025835
0.00926679
0.00913284
0.00895742
0.0087279
0.00843004
0.00804999
0.00757878
0.00701974
0.00639812
0.00576783
0.00520586
0.00478864
0.00456331
0.00453324
0.0046607
0.00487235
0.00507893
0.00520432
0.00520148
0.00506958
0.00485025
0.00460131
0.00436344
0.00415305
0.00398283
0.00386396
0.00379262
0.00375013
0.00371015
0.00365071
0.00355827
0.00342373
0.00323984
0.00300212
0.00271118
0.00237188
0.00198803
0.00155164
0.00102371
0.000218368
0.00914594
0.00902072
0.00885495
0.00863492
0.00834403
0.00796441
0.00748174
0.00689523
0.00623298
0.00556515
0.00499294
0.00459871
0.00441397
0.00442746
0.00460441
0.0048768
0.00513888
0.00527781
0.00522485
0.00500298
0.00469374
0.00437328
0.0040821
0.00383421
0.00364562
0.00353096
0.00347779
0.00344017
0.00338399
0.00330418
0.00320323
0.00308025
0.00292906
0.00274178
0.00251321
0.00224028
0.0019167
0.00152674
0.00103454
0.000187867
0.00906692
0.00897145
0.00884251
0.00866678
0.00842601
0.00809649
0.00765052
0.00706447
0.00634253
0.00556374
0.00490491
0.00449365
0.00432612
0.00435488
0.00455425
0.00488546
0.00523765
0.00542587
0.00531032
0.00497796
0.00458674
0.00420643
0.00385294
0.00354035
0.00332402
0.00325069
0.00329214
0.00333178
0.00328552
0.00317915
0.00305135
0.00291252
0.00275707
0.00257432
0.00235392
0.00209081
0.00178629
0.00144965
0.00105581
0.000174626
0.00902043
0.00898086
0.00892615
0.00884914
0.00873857
0.00857603
0.00832928
0.00793679
0.00727864
0.00619869
0.00497499
0.0044527
0.00427618
0.00430763
0.00451307
0.00488007
0.00530395
0.00549962
0.00537394
0.00500135
0.00454906
0.0041042
0.00361797
0.00303223
0.00225237
0.00211301
0.0024581
0.00301314
0.00311075
0.00303012
0.00288305
0.00270691
0.00251773
0.00232851
0.00213159
0.0019294
0.00178811
0.00204591
0.00197083
0.000221001
)
;

boundaryField
{
    leftWall
    {
        type            nutkWallFunction;
        Cmu             0.09;
        kappa           0.41;
        E               9.8;
        value           nonuniform 0();
    }
    rightWall
    {
        type            nutkWallFunction;
        Cmu             0.09;
        kappa           0.41;
        E               9.8;
        value           nonuniform List<scalar> 
43
(
3.75953e-05
3.52235e-05
3.49802e-05
3.51829e-05
3.81814e-05
3.86507e-05
3.75921e-05
3.7455e-05
3.69238e-05
3.64513e-05
3.7581e-05
4.30897e-05
4.69509e-05
4.993e-05
5.06531e-05
5.06437e-05
5.04396e-05
5.01854e-05
4.99497e-05
4.97574e-05
4.96221e-05
4.971e-05
4.99779e-05
5.02333e-05
5.04447e-05
5.06086e-05
5.07314e-05
5.08225e-05
5.08734e-05
5.08115e-05
5.04869e-05
4.97509e-05
4.85246e-05
4.66797e-05
4.44639e-05
4.17099e-05
3.81495e-05
3.39745e-05
2.82072e-05
2.21858e-05
1.79432e-05
1.62505e-05
2.22944e-05
)
;
    }
    lowerWall
    {
        type            nutkWallFunction;
        Cmu             0.09;
        kappa           0.41;
        E               9.8;
        value           nonuniform 0();
    }
    atmosphere
    {
        type            calculated;
        value           nonuniform List<scalar> 
45
(
0.009
0.009
0.009
0.009
0.009
0.009
0.009
0.009
0.009
0.009
0.009
0.009
0.009
0.009
0.009
0.00497499
0.0044527
0.00427618
0.00430763
0.00451307
0.00488007
0.00530395
0.00549962
0.00537394
0.00500135
0.00454906
0.0041042
0.00361797
0.009
0.009
0.009
0.0024581
0.00301314
0.00311075
0.00303012
0.00288305
0.00270691
0.00251773
0.00232851
0.00213159
0.0019294
0.00178811
0.00204591
0.009
0.009
)
;
    }
    defaultFaces
    {
        type            empty;
    }
    procBoundary3to1
    {
        type            processor;
        value           nonuniform List<scalar> 
45
(
0.0113263
0.0113887
0.0114926
0.0116372
0.0118202
0.0120544
0.0123346
0.0126432
0.0129709
0.0133075
0.0136434
0.0139682
0.0142725
0.0145486
0.0147898
0.0149916
0.0151512
0.015267
0.0153396
0.0153718
0.0153677
0.015331
0.0152657
0.0151763
0.0150683
0.014947
0.0148256
0.0147133
0.0146106
0.0145101
0.0143983
0.0142584
0.0140725
0.0138222
0.0134887
0.0130545
0.0125028
0.0118152
0.0109683
0.00993143
0.00866587
0.00711315
0.00519253
0.00276688
0.000336761
)
;
    }
    procBoundary3to2
    {
        type            processor;
        value           nonuniform List<scalar> 
43
(
0.011375
0.0114713
0.0115884
0.0117213
0.0118653
0.0120163
0.0121712
0.012327
0.0124812
0.0126312
0.0127742
0.0129068
0.013025
0.0131241
0.0131991
0.0132449
0.0132567
0.0132307
0.0131648
0.0130585
0.0129139
0.012735
0.012528
0.0123008
0.0120621
0.0118212
0.011587
0.011367
0.011167
0.0109875
0.0108267
0.0106813
0.010547
0.0104189
0.0102926
0.0101648
0.0100338
0.00989908
0.00976069
0.00961796
0.00946764
0.0093029
0.00911385
)
;
    }
}


// ************************************************************************* //
