/*--------------------------------*- C++ -*----------------------------------*\
| =========                 |                                                 |
| \\      /  F ield         | OpenFOAM: The Open Source CFD Toolbox           |
|  \\    /   O peration     | Version:  5.0                                   |
|   \\  /    A nd           | Web:      www.OpenFOAM.org                      |
|    \\/     M anipulation  |                                                 |
\*---------------------------------------------------------------------------*/
FoamFile
{
    version     2.0;
    format      ascii;
    class       volScalarField;
    location    "0.75";
    object      p;
}
// * * * * * * * * * * * * * * * * * * * * * * * * * * * * * * * * * * * * * //

dimensions      [1 -1 -2 0 0 0 0];

internalField   nonuniform List<scalar> 
1935
(
-2.4457
-2.51368
-2.58049
-2.6464
-2.7117
-2.77657
-2.84121
-2.90574
-2.9703
-3.035
-3.09999
-3.16541
-3.23137
-3.29797
-3.36525
-3.43324
-3.50195
-3.57144
-3.64177
-3.71305
-3.7854
-3.85892
-3.93374
-4.00992
-4.08754
-4.16661
-4.24711
-4.329
-4.4122
-4.49662
-4.58215
-4.66872
-4.75626
-4.84472
-4.93411
-5.02443
-5.11568
-5.2079
-5.30109
-5.39527
-5.49043
-5.58653
-5.68367
-2.46866
-2.49281
-2.51844
-2.54529
-2.53565
-2.55871
-2.58304
-2.60843
-2.60135
-2.62326
-2.6464
-2.67064
-2.66609
-2.68683
-2.70886
-2.73216
-2.73014
-2.74969
-2.77069
-2.79317
-2.79376
-2.81214
-2.83215
-2.85386
-2.8572
-2.87447
-2.89351
-2.91438
-2.92065
-2.93687
-2.95491
-2.97484
-2.98418
-2.99939
-3.01636
-3.03521
-3.04785
-3.06198
-3.0778
-3.09542
-3.11173
-3.12468
-3.1392
-3.15547
-3.17594
-3.18758
-3.20071
-3.2155
-3.24064
-3.25091
-3.26257
-3.27583
-3.30599
-3.3149
-3.32509
-3.33682
-3.37211
-3.37974
-3.38855
-3.3988
-3.43906
-3.44555
-3.4531
-3.46198
-3.50689
-3.51239
-3.51883
-3.52646
-3.57562
-3.58027
-3.58574
-3.59227
-3.64529
-3.6492
-3.65383
-3.65938
-3.71598
-3.71924
-3.72312
-3.72778
-3.78778
-3.79045
-3.79364
-3.79752
-3.8608
-3.86293
-3.8655
-3.86865
-3.93515
-3.93678
-3.93878
-3.94128
-4.01092
-4.0121
-4.01359
-4.01551
-4.08818
-4.08897
-4.09002
-4.09143
-4.16696
-4.16742
-4.1681
-4.16909
-4.24723
-4.24745
-4.24784
-4.24848
-4.32896
-4.329
-4.32917
-4.32955
-4.41207
-4.41198
-4.412
-4.4122
-4.49643
-4.49628
-4.49621
-4.49627
-4.58194
-4.58176
-4.58163
-4.58162
-4.66851
-4.6683
-4.66815
-4.66807
-4.75604
-4.75583
-4.75565
-4.75553
-4.84451
-4.84429
-4.84409
-4.84392
-4.93389
-4.93366
-4.93342
-4.93321
-5.0242
-5.02395
-5.02368
-5.02341
-5.11545
-5.11518
-5.11488
-5.11456
-5.20766
-5.20739
-5.20708
-5.20673
-5.30087
-5.30062
-5.30031
-5.29995
-5.39509
-5.39487
-5.3946
-5.39428
-5.49031
-5.49015
-5.48995
-5.4897
-5.58647
-5.5864
-5.58631
-5.58618
-5.6837
-5.68371
-5.68372
-5.68371
-2.57449
-2.60628
-2.63918
-2.67278
-2.70643
-2.73925
-2.76975
-2.7953
-2.81996
-2.86069
-2.91111
-2.93268
-2.9061
-2.8692
-2.84888
-2.83123
-2.80608
-2.7745
-2.75301
-2.75449
-2.75178
-2.71084
-2.65285
-2.59854
-2.5433
-2.49713
-2.4708
-2.45666
-2.43872
-2.41298
-2.3912
-2.37542
-2.3664
-2.36581
-2.37609
-2.40036
-2.43845
-2.50185
-2.76332
-1.26457
-2.63598
-2.66598
-2.69722
-2.72945
-2.76223
-2.79497
-2.82636
-2.85474
-2.88809
-2.93509
-2.98142
-2.99359
-2.97793
-2.96436
-2.95641
-2.9442
-2.92423
-2.90011
-2.88109
-2.86908
-2.85516
-2.8328
-2.8012
-2.75619
-2.70267
-2.64629
-2.6008
-2.56613
-2.54035
-2.51309
-2.48918
-2.47032
-2.45712
-2.45047
-2.45078
-2.45729
-2.46862
-2.47395
-2.60937
-1.19278
-2.69709
-2.72608
-2.75658
-2.78847
-2.82151
-2.85535
-2.88919
-2.92282
-2.96332
-3.01307
-3.0543
-3.06534
-3.06266
-3.06283
-3.06153
-3.0548
-3.04074
-3.02311
-3.00567
-2.98768
-2.96645
-2.93982
-2.90645
-2.86782
-2.82415
-2.77144
-2.71746
-2.67543
-2.64294
-2.61302
-2.58696
-2.56549
-2.54863
-2.53626
-2.52743
-2.51809
-2.50097
-2.42567
-2.46316
1.50769
-2.75786
-2.78632
-2.81662
-2.84876
-2.88263
-2.91806
-2.95476
-2.99329
-3.03683
-3.0859
-3.12304
-3.14055
-3.14999
-3.15793
-3.16227
-3.16097
-3.15341
-3.14129
-3.12573
-3.10629
-3.08167
-3.05076
-3.01361
-2.97158
-2.92464
-2.87342
-2.8244
-2.78232
-2.74495
-2.71136
-2.68269
-2.65891
-2.63974
-2.62511
-2.61452
-2.60603
-2.58969
-2.55114
-2.72598
1.449
-2.8183
-2.84644
-2.87677
-2.90936
-2.94415
-2.98104
-3.01988
-3.06098
-3.10538
-3.15125
-3.18826
-3.21354
-3.2327
-3.24781
-3.25798
-3.26218
-3.26009
-3.2521
-3.23867
-3.21944
-3.19362
-3.16077
-3.12134
-3.07674
-3.02847
-2.97866
-2.93081
-2.8865
-2.84413
-2.80596
-2.77434
-2.7484
-2.72762
-2.71294
-2.70597
-2.70844
-2.70872
-2.70244
-3.37393
-1.79864
-2.87841
-2.90625
-2.93659
-2.96956
-3.00512
-3.04312
-3.08337
-3.12578
-3.17029
-3.21427
-3.2529
-3.28467
-3.3109
-3.33198
-3.34726
-3.35625
-3.35861
-3.35415
-3.34293
-3.32467
-3.29891
-3.2655
-3.22513
-3.17939
-3.1305
-3.08107
-3.03379
-2.98801
-2.94047
-2.89629
-2.86058
-2.83182
-2.80861
-2.79212
-2.7844
-2.78482
-2.77946
-2.7614
-3.14864
-0.0968887
-2.93825
-2.96564
-2.99579
-3.0289
-3.06489
-3.10358
-3.14478
-3.18809
-3.23271
-3.27661
-3.31722
-3.35313
-3.38402
-3.40948
-3.42879
-3.44165
-3.44762
-3.4463
-3.43741
-3.42066
-3.39581
-3.36284
-3.32262
-3.27692
-3.22817
-3.17918
-3.13245
-3.08595
-3.03605
-2.9875
-2.94416
-2.9093
-2.88143
-2.86031
-2.84751
-2.84448
-2.85158
-2.87667
-3.22847
1.08645
-2.99785
-3.02454
-3.05422
-3.08709
-3.12309
-3.16207
-3.20375
-3.24754
-3.29234
-3.33665
-3.3787
-3.41708
-3.45094
-3.47941
-3.50182
-3.51772
-3.52662
-3.52802
-3.52149
-3.50668
-3.48333
-3.45162
-3.41249
-3.3678
-3.31993
-3.27143
-3.22471
-3.17916
-3.13171
-3.0812
-3.02943
-2.98356
-2.94689
-2.91677
-2.88955
-2.86336
-2.84141
-2.82356
-3.1427
3.0798
-3.05716
-3.08289
-3.11176
-3.14396
-3.17955
-3.21835
-3.25994
-3.30361
-3.34837
-3.39286
-3.43563
-3.47534
-3.51093
-3.54144
-3.56612
-3.58438
-3.59567
-3.59945
-3.59519
-3.58246
-3.56102
-3.53113
-3.49382
-3.45095
-3.40474
-3.35717
-3.3103
-3.26709
-3.22256
-3.17176
-3.11592
-3.05904
-3.01084
-2.96984
-2.92556
-2.87075
-2.81159
-2.69871
-2.80474
1.35769
-3.11612
-3.14062
-3.16834
-3.1995
-3.23414
-3.27218
-3.3131
-3.35613
-3.40036
-3.44455
-3.48737
-3.52753
-3.56396
-3.59568
-3.62189
-3.64192
-3.65516
-3.66101
-3.65887
-3.64826
-3.62891
-3.60116
-3.56611
-3.52563
-3.48183
-3.43629
-3.39004
-3.34691
-3.30718
-3.25887
-3.20111
-3.13842
-3.08121
-3.03123
-2.97354
-2.89641
-2.81727
-2.72017
-2.79513
-8.49594
-3.17473
-3.19777
-3.22404
-3.25377
-3.287
-3.32364
-3.36327
-3.40511
-3.44827
-3.49161
-3.53382
-3.57373
-3.61028
-3.64254
-3.66967
-3.69097
-3.70578
-3.71344
-3.7133
-3.70478
-3.6876
-3.66211
-3.62948
-3.59159
-3.55054
-3.50782
-3.46381
-3.41986
-3.38171
-3.33848
-3.28373
-3.22146
-3.16321
-3.10952
-3.04226
-2.94334
-2.89959
-2.88825
-1.15775
-2.9378
-3.2332
-3.25457
-3.27912
-3.30708
-3.33849
-3.37324
-3.41096
-3.45103
-3.49254
-3.53442
-3.57543
-3.61449
-3.65059
-3.68282
-3.71036
-3.73251
-3.74857
-3.75785
-3.75959
-3.75315
-3.73818
-3.71499
-3.68476
-3.64938
-3.61096
-3.57095
-3.5295
-3.48672
-3.44787
-3.40989
-3.36263
-3.30897
-3.25903
-3.21249
-3.15704
-3.08206
-3.14135
-3.21706
-2.69059
-4.46051
-3.29187
-3.31142
-3.33404
-3.35995
-3.38921
-3.42171
-3.45709
-3.49483
-3.53413
-3.57397
-3.61325
-3.65094
-3.68608
-3.7178
-3.74531
-3.76792
-3.78494
-3.79562
-3.79914
-3.79479
-3.7821
-3.76128
-3.73343
-3.70041
-3.66432
-3.62666
-3.58756
-3.54658
-3.50777
-3.4757
-3.4373
-3.39615
-3.35729
-3.32779
-3.30873
-3.30534
-3.39017
-3.56513
-3.63657
-3.67103
-3.35116
-3.36883
-3.38938
-3.41305
-3.43991
-3.46986
-3.50261
-3.53766
-3.5743
-3.61166
-3.64875
-3.68461
-3.71832
-3.74908
-3.77616
-3.79887
-3.81654
-3.8284
-3.8336
-3.83132
-3.82098
-3.80267
-3.7773
-3.74661
-3.71267
-3.67703
-3.64002
-3.60138
-3.56327
-3.53316
-3.50473
-3.47329
-3.43975
-3.41981
-3.41875
-3.44301
-3.51649
-3.62535
-3.64121
-3.55814
-3.41147
-3.42723
-3.44568
-3.46702
-3.49134
-3.51857
-3.54847
-3.58059
-3.61433
-3.64891
-3.68347
-3.71713
-3.74905
-3.77849
-3.80477
-3.82724
-3.84524
-3.85802
-3.86471
-3.86443
-3.8565
-3.84083
-3.81811
-3.78986
-3.75804
-3.72423
-3.68913
-3.65291
-3.61692
-3.58539
-3.55957
-3.53101
-3.50084
-3.48104
-3.47612
-3.48767
-3.51672
-3.53992
-3.48343
-3.36863
-3.47306
-3.48697
-3.50335
-3.52238
-3.54414
-3.5686
-3.59557
-3.62467
-3.65538
-3.68703
-3.71886
-3.7501
-3.77999
-3.80783
-3.83301
-3.85492
-3.87295
-3.88636
-3.89431
-3.89588
-3.8903
-3.87732
-3.85738
-3.83175
-3.80216
-3.77013
-3.7366
-3.7019
-3.66709
-3.63456
-3.60489
-3.57433
-3.54493
-3.52158
-3.50572
-3.49583
-3.48597
-3.45532
-3.36814
-3.25085
-3.53608
-3.54825
-3.56265
-3.57945
-3.59874
-3.6205
-3.64459
-3.6707
-3.69839
-3.7271
-3.75616
-3.7849
-3.81262
-3.83871
-3.86259
-3.88372
-3.9015
-3.91527
-3.9242
-3.92739
-3.924
-3.91363
-3.8965
-3.87358
-3.84634
-3.81618
-3.78395
-3.75012
-3.71545
-3.68118
-3.64793
-3.61505
-3.58333
-3.55404
-3.52671
-3.49858
-3.46283
-3.40307
-3.30033
-3.18247
-3.60055
-3.61111
-3.62368
-3.6384
-3.65536
-3.67458
-3.69595
-3.71922
-3.74403
-3.7699
-3.79628
-3.82256
-3.84813
-3.87243
-3.89494
-3.91514
-3.93251
-3.94642
-3.9561
-3.96066
-3.95924
-3.95131
-3.93687
-3.91662
-3.89174
-3.86339
-3.83245
-3.79943
-3.76479
-3.72922
-3.69342
-3.65752
-3.62165
-3.58558
-3.54794
-3.5057
-3.45274
-3.37622
-3.2647
-3.14733
-3.66646
-3.67557
-3.68646
-3.69927
-3.7141
-3.73098
-3.74984
-3.77049
-3.79264
-3.8159
-3.83978
-3.86376
-3.88731
-3.90992
-3.9311
-3.95038
-3.96728
-3.98122
-3.9915
-3.99724
-3.99761
-3.99195
-3.98006
-3.96233
-3.9397
-3.91311
-3.88338
-3.85105
-3.81642
-3.77997
-3.74216
-3.70317
-3.66286
-3.62051
-3.57446
-3.52191
-3.45765
-3.3712
-3.25503
-3.13924
-3.73379
-3.74158
-3.75095
-3.76204
-3.77494
-3.78971
-3.80631
-3.82461
-3.84437
-3.86528
-3.88692
-3.90886
-3.93062
-3.95173
-3.97175
-3.99024
-4.00675
-4.02075
-4.03159
-4.03846
-4.04051
-4.03703
-4.02762
-4.01239
-3.99192
-3.96702
-3.93842
-3.90665
-3.87205
-3.83494
-3.79554
-3.75391
-3.70979
-3.66234
-3.60998
-3.55031
-3.47892
-3.38671
-3.26819
-3.15406
-3.80255
-3.80915
-3.81715
-3.82669
-3.83787
-3.85076
-3.86535
-3.88156
-3.89922
-3.91807
-3.93779
-3.95799
-3.97824
-3.99814
-4.01726
-4.03519
-4.05151
-4.06574
-4.07724
-4.08529
-4.08907
-4.08781
-4.08095
-4.06831
-4.05018
-4.02712
-3.99977
-3.9687
-3.93429
-3.89676
-3.85621
-3.81257
-3.76553
-3.7143
-3.65753
-3.59321
-3.5175
-3.42207
-3.30248
-3.18981
-3.8728
-3.87832
-3.88509
-3.89324
-3.90288
-3.91411
-3.92693
-3.94132
-3.95716
-3.97425
-3.99234
-4.0111
-4.03018
-4.04919
-4.06774
-4.08543
-4.10187
-4.11658
-4.12899
-4.13842
-4.1441
-4.14523
-4.14113
-4.13139
-4.11599
-4.09524
-4.06965
-4.03973
-4.00588
-3.96831
-3.92709
-3.88211
-3.83305
-3.77923
-3.71955
-3.65233
-3.57412
-3.47708
-3.35732
-3.24567
-3.94464
-3.94918
-3.95484
-3.96175
-3.97003
-3.97978
-3.99105
-4.00386
-4.01812
-4.03372
-4.05047
-4.0681
-4.08631
-4.10476
-4.12309
-4.14092
-4.15784
-4.1734
-4.18708
-4.19823
-4.20613
-4.20995
-4.20896
-4.20255
-4.19044
-4.17268
-4.14956
-4.12149
-4.08885
-4.05185
-4.01059
-3.96498
-3.91472
-3.85926
-3.79774
-3.72874
-3.64915
-3.55152
-3.43219
-3.32103
-4.01816
-4.02183
-4.0265
-4.03231
-4.03938
-4.04783
-4.05775
-4.06917
-4.08209
-4.09644
-4.11208
-4.12883
-4.14645
-4.16463
-4.18306
-4.20138
-4.21918
-4.23604
-4.25145
-4.2648
-4.27538
-4.28237
-4.28496
-4.28244
-4.27428
-4.2603
-4.24053
-4.2152
-4.1846
-4.14898
-4.10845
-4.06295
-4.01221
-3.95578
-3.89308
-3.82298
-3.74267
-3.64508
-3.52662
-3.41604
-4.09345
-4.09636
-4.10016
-4.105
-4.111
-4.11832
-4.12705
-4.13727
-4.14903
-4.1623
-4.17704
-4.19311
-4.21033
-4.22847
-4.24726
-4.26637
-4.28544
-4.30405
-4.32173
-4.33787
-4.35177
-4.3626
-4.36949
-4.37159
-4.36821
-4.35892
-4.34348
-4.32189
-4.29429
-4.26092
-4.22195
-4.17732
-4.12666
-4.06965
-4.00611
-3.93529
-3.85469
-3.75757
-3.64042
-3.53071
-4.17058
-4.17283
-4.17588
-4.17987
-4.18495
-4.19127
-4.19896
-4.20813
-4.21887
-4.23121
-4.24516
-4.26065
-4.27759
-4.29581
-4.31512
-4.33525
-4.3559
-4.3767
-4.3972
-4.41682
-4.43484
-4.45042
-4.46259
-4.47036
-4.47284
-4.4694
-4.45951
-4.44281
-4.41925
-4.389
-4.35243
-4.30947
-4.25935
-4.20169
-4.13727
-4.06582
-3.98517
-3.88887
-3.77343
-3.66488
-4.24953
-4.25124
-4.25365
-4.25693
-4.26121
-4.26666
-4.27344
-4.28168
-4.29149
-4.30298
-4.31618
-4.33113
-4.34779
-4.36611
-4.38597
-4.40722
-4.42965
-4.45299
-4.47684
-4.50068
-4.5238
-4.5453
-4.56407
-4.57886
-4.5886
-4.59261
-4.58993
-4.57963
-4.56115
-4.53473
-4.50163
-4.46181
-4.41263
-4.35331
-4.28729
-4.21469
-4.13405
-4.03892
-3.92551
-3.81833
-4.33027
-4.33153
-4.33342
-4.33609
-4.3397
-4.3444
-4.35036
-4.35774
-4.36668
-4.37732
-4.38977
-4.4041
-4.4204
-4.43869
-4.45901
-4.48132
-4.5056
-4.53171
-4.55942
-4.5883
-4.61763
-4.64642
-4.67337
-4.69666
-4.71515
-4.72857
-4.73528
-4.73278
-4.71859
-4.69559
-4.66845
-4.63439
-4.58505
-4.52391
-4.45565
-4.38132
-4.30116
-4.20787
-4.09684
-3.99103
-4.41266
-4.41358
-4.41505
-4.41723
-4.42024
-4.42428
-4.42949
-4.43606
-4.44414
-4.4539
-4.4655
-4.47908
-4.4948
-4.51284
-4.53336
-4.55656
-4.58261
-4.61166
-4.64372
-4.6785
-4.71514
-4.75256
-4.78947
-4.82295
-4.85155
-4.87592
-4.89278
-4.89685
-4.88927
-4.87076
-4.8432
-4.81093
-4.76626
-4.70109
-4.62821
-4.55817
-4.48333
-4.39532
-4.28804
-4.18338
-4.49655
-4.49721
-4.49835
-4.50011
-4.50262
-4.50605
-4.51056
-4.51633
-4.52351
-4.53231
-4.5429
-4.55551
-4.57038
-4.58782
-4.60821
-4.632
-4.65971
-4.69185
-4.72875
-4.77013
-4.8149
-4.8631
-4.9144
-4.96323
-5.00812
-5.04871
-5.07819
-5.09482
-5.10128
-5.09594
-5.07328
-5.03724
-4.99256
-4.93119
-4.8465
-4.75581
-4.6781
-4.59939
-4.49921
-4.39602
-4.58177
-4.58223
-4.5831
-4.58449
-4.58655
-4.58942
-4.59324
-4.59818
-4.6044
-4.61211
-4.62151
-4.63288
-4.64656
-4.66304
-4.68294
-4.70705
-4.73634
-4.77165
-4.8136
-4.86254
-4.91818
-4.98476
-5.06337
-5.14167
-5.21454
-5.27883
-5.32743
-5.36354
-5.3821
-5.37948
-5.36127
-5.33361
-5.29059
-5.22779
-5.13501
-5.01399
-4.90792
-4.82182
-4.72788
-4.62755
-4.66813
-4.66843
-4.66906
-4.67014
-4.67177
-4.67408
-4.6772
-4.68127
-4.68645
-4.69293
-4.70095
-4.71082
-4.72302
-4.73821
-4.75735
-4.78166
-4.81238
-4.85047
-4.89821
-4.96043
-5.04068
-5.13874
-5.24712
-5.35237
-5.4402
-5.51112
-5.56515
-5.60437
-5.62582
-5.62578
-5.61041
-5.58551
-5.55013
-5.50127
-5.41794
-5.29121
-5.15632
-5.0546
-4.96358
-4.86747
-4.7555
-4.75565
-4.75607
-4.75684
-4.75805
-4.7598
-4.76219
-4.76535
-4.7694
-4.77454
-4.78101
-4.7892
-4.79971
-4.81349
-4.83188
-4.85643
-4.8883
-4.92943
-4.99
-5.08177
-5.19897
-5.31879
-5.42789
-5.52537
-5.61163
-5.68688
-5.74917
-5.79523
-5.82174
-5.82676
-5.81392
-5.78715
-5.74721
-5.69955
-5.63747
-5.5257
-5.3793
-5.26613
-5.18091
-5.08892
-4.8438
-4.84381
-4.84402
-4.84448
-4.84526
-4.84643
-4.84806
-4.85025
-4.85312
-4.85683
-4.86168
-4.86811
-4.87692
-4.8894
-4.90724
-4.93207
-4.96607
-5.01866
-5.10534
-5.22814
-5.3536
-5.45654
-5.55529
-5.65505
-5.75441
-5.84332
-5.91553
-5.96751
-5.99706
-6.00365
-5.98953
-5.95755
-5.91004
-5.8543
-5.78989
-5.69027
-5.54744
-5.43274
-5.35467
-5.24846
-4.933
-4.93287
-4.93285
-4.933
-4.93334
-4.93391
-4.93477
-4.93597
-4.93762
-4.93989
-4.9431
-4.94782
-4.95504
-4.96633
-4.98335
-5.00773
-5.04696
-5.12349
-5.23785
-5.354
-5.44927
-5.5435
-5.65204
-5.76631
-5.87537
-5.97202
-6.05064
-6.10715
-6.13893
-6.14567
-6.12961
-6.09326
-6.03655
-5.97328
-5.90098
-5.79084
-5.64645
-5.5276
-5.44068
-5.31933
-5.02311
-5.02283
-5.0226
-5.02243
-5.02232
-5.0223
-5.02237
-5.02258
-5.02303
-5.0239
-5.02555
-5.02871
-5.03457
-5.04471
-5.0605
-5.08575
-5.13893
-5.23453
-5.34274
-5.42638
-5.5078
-5.61254
-5.72814
-5.84547
-5.95758
-6.05744
-6.13908
-6.19864
-6.23221
-6.23882
-6.22306
-6.1864
-6.12791
-6.05739
-5.96365
-5.82529
-5.665
-5.52929
-5.41586
-5.30107
-5.11419
-5.11377
-5.11333
-5.11285
-5.11232
-5.11171
-5.11102
-5.11026
-5.10954
-5.10907
-5.10932
-5.11114
-5.11581
-5.12455
-5.13918
-5.17019
-5.23677
-5.3301
-5.40755
-5.46919
-5.55268
-5.65814
-5.77021
-5.88361
-5.9929
-6.09032
-6.17093
-6.23462
-6.27774
-6.2932
-6.27953
-6.23933
-6.17033
-6.07438
-5.9424
-5.77243
-5.5965
-5.43923
-5.30533
-5.23572
-5.20629
-5.20577
-5.20515
-5.20441
-5.20349
-5.20234
-5.20092
-5.19924
-5.19739
-5.19565
-5.19462
-5.19526
-5.19868
-5.20559
-5.21955
-5.25715
-5.32637
-5.39984
-5.45038
-5.50078
-5.58028
-5.67871
-5.78093
-5.88297
-5.98211
-6.07051
-6.14599
-6.21251
-6.26397
-6.27644
-6.24389
-6.1779
-6.07932
-5.95585
-5.81139
-5.64425
-5.47895
-5.32514
-5.21222
-5.2102
-5.29949
-5.29891
-5.29818
-5.29725
-5.29602
-5.29443
-5.29236
-5.2898
-5.28682
-5.28381
-5.28156
-5.28112
-5.28325
-5.28827
-5.30216
-5.3429
-5.40966
-5.46213
-5.49136
-5.52952
-5.59947
-5.68542
-5.77182
-5.85557
-5.93586
-6.00606
-6.06225
-6.10057
-6.11936
-6.11106
-6.06762
-5.99553
-5.89658
-5.77678
-5.65
-5.51938
-5.38887
-5.27638
-5.22868
-5.26909
-5.39385
-5.39328
-5.39253
-5.39152
-5.39014
-5.38824
-5.38567
-5.3823
-5.37817
-5.37378
-5.37026
-5.36887
-5.37006
-5.37383
-5.38745
-5.43012
-5.49592
-5.54077
-5.55287
-5.57459
-5.63134
-5.70205
-5.77039
-5.83305
-5.88378
-5.91572
-5.9356
-5.94307
-5.9358
-5.91265
-5.87129
-5.80879
-5.7282
-5.63728
-5.54228
-5.44871
-5.36767
-5.32196
-5.33069
-5.37151
-5.48936
-5.4889
-5.48826
-5.48736
-5.48607
-5.48419
-5.48147
-5.47759
-5.47233
-5.46615
-5.46126
-5.45979
-5.4608
-5.46405
-5.47552
-5.52078
-5.60027
-5.65999
-5.65982
-5.66192
-5.70535
-5.76957
-5.83256
-5.87762
-5.88218
-5.84471
-5.81402
-5.79425
-5.78034
-5.75908
-5.72579
-5.67737
-5.62093
-5.5626
-5.50706
-5.45996
-5.43026
-5.42761
-5.45066
-5.4784
-5.586
-5.58573
-5.58535
-5.5848
-5.58395
-5.5826
-5.5804
-5.57649
-5.56914
-5.55775
-5.55094
-5.55402
-5.55648
-5.56066
-5.5707
-5.61946
-5.75271
-5.88549
-5.86604
-5.8076
-5.81618
-5.87483
-5.94415
-5.9722
-5.88451
-5.81271
-5.7323
-5.68902
-5.66821
-5.65691
-5.64596
-5.62715
-5.60505
-5.58423
-5.56748
-5.55619
-5.5508
-5.55575
-5.56801
-5.58002
-5.68367
-5.68359
-5.68344
-5.68317
-5.68265
-5.68163
-5.67957
-5.67484
-5.66205
-5.63272
-5.61903
-5.61939
-5.62426
-5.63143
-5.63785
-5.66024
-5.81659
-6.16781
-6.11543
-5.94674
-5.96485
-6.11909
-6.33176
-6.47406
-6.32425
-5.82674
-5.39239
-5.35372
-5.54088
-5.65035
-5.70724
-5.73094
-5.73574
-5.73368
-5.72752
-5.71882
-5.70624
-5.69519
-5.69061
-5.69317
)
;

boundaryField
{
    leftWall
    {
        type            calculated;
        value           nonuniform 0();
    }
    rightWall
    {
        type            calculated;
        value           nonuniform List<scalar> 
43
(
-1.26457
-1.19278
1.50769
1.449
-1.79864
-0.0968887
1.08645
3.0798
1.35769
-8.49594
-2.9378
-4.46051
-3.67103
-3.55814
-3.36863
-3.25085
-3.18247
-3.14733
-3.13924
-3.15406
-3.18981
-3.24567
-3.32103
-3.41604
-3.53071
-3.66488
-3.81833
-3.99103
-4.18338
-4.39602
-4.62755
-4.86747
-5.08892
-5.24846
-5.31933
-5.30107
-5.23572
-5.2102
-5.26909
-5.37151
-5.4784
-5.58002
-5.69317
)
;
    }
    lowerWall
    {
        type            calculated;
        value           nonuniform 0();
    }
    atmosphere
    {
        type            calculated;
        value           nonuniform List<scalar> 
45
(
-5.73257
-5.73263
-5.73267
-5.73271
-5.73273
-5.73273
-5.73269
-5.73259
-5.73241
-5.73213
-5.73173
-5.7312
-5.73055
-5.72987
-5.72932
-5.72904
-5.72904
-5.72904
-5.72904
-5.72906
-5.72954
-5.96981
-7.49837
-6.97689
-5.82645
-5.82645
-6.10409
-6.38364
-6.08776
-5.74887
-5.74641
-5.72904
-5.72905
-5.72948
-5.73507
-5.73842
-5.73499
-5.7296
-5.72926
-5.72916
-5.72911
-5.72905
-5.72904
-5.72965
-5.72904
)
;
    }
    defaultFaces
    {
        type            empty;
    }
    procBoundary3to1
    {
        type            processor;
        value           nonuniform List<scalar> 
45
(
-2.37625
-2.40001
-2.42516
-2.45219
-2.48092
-2.51254
-2.54723
-2.58306
-2.61942
-2.65542
-2.6898
-2.7213
-2.74669
-2.76458
-2.79199
-2.84202
-2.88045
-2.85175
-2.7913
-2.74346
-2.71797
-2.68954
-2.64802
-2.60889
-2.60263
-2.5945
-2.53712
-2.47158
-2.42574
-2.38412
-2.35026
-2.34421
-2.35248
-2.33668
-2.31207
-2.29304
-2.28008
-2.27357
-2.27572
-2.29082
-2.32325
-2.38556
-2.54929
-3.08706
-2.42453
)
;
    }
    procBoundary3to2
    {
        type            processor;
        value           nonuniform List<scalar> 
43
(
-2.42439
-2.49331
-2.56116
-2.62819
-2.69465
-2.76071
-2.82649
-2.89211
-2.95769
-3.02341
-3.08945
-3.15596
-3.22304
-3.29072
-3.359
-3.42787
-3.49736
-3.56753
-3.63848
-3.71032
-3.78318
-3.85719
-3.93244
-4.00902
-4.08698
-4.16631
-4.24702
-4.32905
-4.41234
-4.4968
-4.58235
-4.66891
-4.75644
-4.84491
-4.9343
-5.02461
-5.11587
-5.20808
-5.30126
-5.39542
-5.49053
-5.58656
-5.68364
)
;
    }
}


// ************************************************************************* //
