/*--------------------------------*- C++ -*----------------------------------*\
| =========                 |                                                 |
| \\      /  F ield         | OpenFOAM: The Open Source CFD Toolbox           |
|  \\    /   O peration     | Version:  5.0                                   |
|   \\  /    A nd           | Web:      www.OpenFOAM.org                      |
|    \\/     M anipulation  |                                                 |
\*---------------------------------------------------------------------------*/
FoamFile
{
    version     2.0;
    format      ascii;
    class       volScalarField;
    location    "0.8";
    object      p;
}
// * * * * * * * * * * * * * * * * * * * * * * * * * * * * * * * * * * * * * //

dimensions      [1 -1 -2 0 0 0 0];

internalField   nonuniform List<scalar> 
1915
(
-2.25722
-2.26345
-2.2702
-2.27745
-2.28524
-2.29357
-2.30245
-2.31187
-2.32181
-2.33223
-2.34307
-2.35428
-2.36585
-2.37782
-2.39028
-2.40342
-2.41748
-2.4327
-2.44932
-2.46753
-2.4875
-2.50935
-2.5332
-2.55916
-2.58733
-2.28066
-2.2808
-2.28104
-2.28144
-2.28204
-2.28286
-2.2839
-2.28519
-2.28673
-2.28853
-2.2906
-2.29295
-2.29559
-2.29853
-2.3018
-2.30542
-2.30939
-2.31376
-2.31853
-2.32375
-2.32945
-2.33565
-2.34236
-2.34958
-2.35736
-2.3657
-2.37463
-2.38415
-2.39427
-2.40496
-2.41618
-2.42787
-2.44
-2.45253
-2.4655
-2.47901
-2.49322
-2.50833
-2.52456
-2.5421
-2.56112
-2.58174
-2.60404
-2.62807
-2.65386
-2.35319
-2.35343
-2.35373
-2.35419
-2.35484
-2.3557
-2.35677
-2.35809
-2.35964
-2.36144
-2.36351
-2.36585
-2.36847
-2.37139
-2.37463
-2.37821
-2.38214
-2.38646
-2.39119
-2.39636
-2.402
-2.40812
-2.41474
-2.42189
-2.42958
-2.43785
-2.44671
-2.4562
-2.4663
-2.47702
-2.48834
-2.50022
-2.51262
-2.52549
-2.53883
-2.55267
-2.56709
-2.58221
-2.5982
-2.6152
-2.63335
-2.65277
-2.67354
-2.69568
-2.71913
-2.42617
-2.42643
-2.42679
-2.42731
-2.42801
-2.42891
-2.43002
-2.43135
-2.43291
-2.43472
-2.43679
-2.43911
-2.44172
-2.44461
-2.44782
-2.45135
-2.45524
-2.4595
-2.46417
-2.46926
-2.4748
-2.48081
-2.48732
-2.49434
-2.50191
-2.51004
-2.51877
-2.52811
-2.53809
-2.54871
-2.55995
-2.57181
-2.58424
-2.59722
-2.6107
-2.62469
-2.63921
-2.65429
-2.67004
-2.68654
-2.70389
-2.72218
-2.74148
-2.7618
-2.78301
-2.49956
-2.49985
-2.50026
-2.50082
-2.50156
-2.50249
-2.50363
-2.50498
-2.50655
-2.50836
-2.51042
-2.51273
-2.51531
-2.51817
-2.52134
-2.52483
-2.52865
-2.53284
-2.53742
-2.54242
-2.54784
-2.55373
-2.56009
-2.56696
-2.57436
-2.58231
-2.59084
-2.59998
-2.60974
-2.62014
-2.63118
-2.64285
-2.65513
-2.66798
-2.68138
-2.6953
-2.70971
-2.72461
-2.74004
-2.75602
-2.77261
-2.78985
-2.80779
-2.82642
-2.84557
-2.57336
-2.57367
-2.57412
-2.57472
-2.5755
-2.57646
-2.57761
-2.57897
-2.58055
-2.58236
-2.58441
-2.5867
-2.58925
-2.59208
-2.5952
-2.59862
-2.60238
-2.60649
-2.61097
-2.61584
-2.62114
-2.62687
-2.63307
-2.63976
-2.64695
-2.65468
-2.66297
-2.67184
-2.68132
-2.69141
-2.70214
-2.71348
-2.72544
-2.73799
-2.7511
-2.76472
-2.77882
-2.79336
-2.80834
-2.82374
-2.83955
-2.85581
-2.87251
-2.88961
-2.90688
-2.64759
-2.64791
-2.64839
-2.64903
-2.64983
-2.65081
-2.65198
-2.65335
-2.65493
-2.65673
-2.65876
-2.66102
-2.66354
-2.66633
-2.66939
-2.67275
-2.67642
-2.68043
-2.6848
-2.68955
-2.69469
-2.70026
-2.70627
-2.71275
-2.71971
-2.72718
-2.73519
-2.74375
-2.75288
-2.76261
-2.77293
-2.78386
-2.79537
-2.80746
-2.8201
-2.83323
-2.84683
-2.86083
-2.8752
-2.88991
-2.9049
-2.92017
-2.9357
-2.95141
-2.96704
-2.72224
-2.72258
-2.72308
-2.72374
-2.72456
-2.72555
-2.72673
-2.7281
-2.72968
-2.73147
-2.73347
-2.73571
-2.73819
-2.74092
-2.74393
-2.74721
-2.75079
-2.7547
-2.75894
-2.76354
-2.76853
-2.77391
-2.77971
-2.78595
-2.79266
-2.79984
-2.80753
-2.81574
-2.82449
-2.83379
-2.84366
-2.85408
-2.86507
-2.87659
-2.88862
-2.90112
-2.91405
-2.92735
-2.94097
-2.95485
-2.96894
-2.9832
-2.99758
-3.012
-3.02616
-2.79733
-2.79767
-2.79819
-2.79886
-2.7997
-2.8007
-2.80188
-2.80325
-2.80482
-2.80659
-2.80857
-2.81077
-2.8132
-2.81588
-2.81881
-2.82201
-2.8255
-2.82929
-2.8334
-2.83784
-2.84265
-2.84783
-2.85341
-2.8594
-2.86583
-2.87271
-2.88005
-2.88788
-2.89621
-2.90505
-2.9144
-2.92428
-2.93466
-2.94553
-2.95687
-2.96863
-2.98077
-2.99325
-3.00599
-3.01893
-3.03202
-3.04521
-3.05843
-3.0716
-3.08445
-2.87286
-2.8732
-2.87373
-2.87441
-2.87525
-2.87625
-2.87743
-2.87879
-2.88034
-2.88209
-2.88404
-2.8862
-2.88859
-2.8912
-2.89406
-2.89717
-2.90055
-2.90421
-2.90818
-2.91246
-2.91708
-2.92205
-2.92739
-2.93312
-2.93925
-2.9458
-2.95278
-2.9602
-2.96809
-2.97643
-2.98525
-2.99453
-3.00427
-3.01444
-3.02502
-3.03598
-3.04726
-3.05882
-3.07059
-3.08252
-3.09454
-3.1066
-3.11864
-3.13057
-3.14219
-2.94883
-2.94918
-2.9497
-2.95039
-2.95123
-2.95223
-2.9534
-2.95475
-2.95628
-2.95799
-2.95991
-2.96202
-2.96435
-2.9669
-2.96967
-2.97269
-2.97595
-2.97949
-2.9833
-2.98742
-2.99184
-2.99659
-3.00168
-3.00713
-3.01296
-3.01916
-3.02576
-3.03276
-3.04018
-3.04802
-3.05627
-3.06494
-3.07401
-3.08345
-3.09325
-3.10336
-3.11373
-3.12433
-3.13509
-3.14595
-3.15685
-3.16775
-3.17859
-3.1893
-3.19973
-3.02526
-3.0256
-3.02613
-3.02681
-3.02764
-3.02864
-3.02979
-3.03112
-3.03262
-3.03431
-3.03618
-3.03824
-3.0405
-3.04298
-3.04567
-3.04858
-3.05173
-3.05513
-3.05879
-3.06272
-3.06695
-3.07147
-3.07631
-3.08147
-3.08697
-3.09283
-3.09904
-3.10561
-3.11255
-3.11986
-3.12755
-3.13559
-3.14397
-3.15267
-3.16167
-3.17092
-3.18038
-3.18999
-3.19972
-3.2095
-3.21928
-3.22901
-3.23865
-3.24814
-3.25742
-3.10215
-3.10249
-3.103
-3.10368
-3.1045
-3.10548
-3.10662
-3.10792
-3.10939
-3.11104
-3.11286
-3.11487
-3.11706
-3.11946
-3.12205
-3.12486
-3.12789
-3.13115
-3.13465
-3.1384
-3.14242
-3.14671
-3.15129
-3.15616
-3.16134
-3.16683
-3.17265
-3.17878
-3.18524
-3.19203
-3.19913
-3.20654
-3.21424
-3.22221
-3.23041
-3.2388
-3.24735
-3.256
-3.26471
-3.27342
-3.2821
-3.29068
-3.29914
-3.30746
-3.3156
-3.1795
-3.17984
-3.18035
-3.18101
-3.18182
-3.18278
-3.18389
-3.18516
-3.1866
-3.1882
-3.18997
-3.19191
-3.19404
-3.19635
-3.19885
-3.20155
-3.20445
-3.20757
-3.21091
-3.21447
-3.21828
-3.22234
-3.22665
-3.23123
-3.23608
-3.24122
-3.24663
-3.25233
-3.25832
-3.26458
-3.27111
-3.27789
-3.28492
-3.29215
-3.29957
-3.30713
-3.31479
-3.3225
-3.33022
-3.33791
-3.34551
-3.353
-3.36034
-3.36752
-3.37456
-3.25734
-3.25767
-3.25816
-3.25881
-3.25961
-3.26054
-3.26162
-3.26286
-3.26425
-3.2658
-3.26752
-3.2694
-3.27145
-3.27367
-3.27607
-3.27865
-3.28143
-3.2844
-3.28757
-3.29095
-3.29455
-3.29837
-3.30242
-3.30671
-3.31124
-3.31602
-3.32104
-3.3263
-3.33181
-3.33756
-3.34353
-3.3497
-3.35607
-3.3626
-3.36926
-3.37601
-3.38281
-3.38963
-3.39641
-3.40312
-3.40971
-3.41616
-3.42244
-3.42856
-3.43455
-3.33567
-3.33598
-3.33647
-3.3371
-3.33787
-3.33878
-3.33983
-3.34102
-3.34237
-3.34387
-3.34552
-3.34733
-3.3493
-3.35143
-3.35373
-3.3562
-3.35884
-3.36166
-3.36467
-3.36786
-3.37125
-3.37484
-3.37863
-3.38263
-3.38684
-3.39126
-3.3959
-3.40074
-3.40579
-3.41103
-3.41645
-3.42204
-3.42777
-3.43362
-3.43955
-3.44553
-3.45153
-3.4575
-3.46339
-3.46918
-3.47483
-3.48031
-3.48561
-3.49074
-3.49575
-3.41449
-3.4148
-3.41526
-3.41588
-3.41662
-3.4175
-3.41851
-3.41967
-3.42097
-3.42241
-3.42399
-3.42573
-3.42761
-3.42965
-3.43184
-3.43419
-3.4367
-3.43937
-3.44221
-3.44522
-3.4484
-3.45176
-3.4553
-3.45901
-3.46291
-3.46699
-3.47125
-3.47568
-3.48028
-3.48504
-3.48993
-3.49496
-3.50008
-3.50528
-3.51053
-3.51579
-3.52102
-3.52619
-3.53127
-3.53621
-3.54098
-3.54557
-3.54997
-3.55419
-3.55828
-3.49382
-3.49412
-3.49457
-3.49516
-3.49588
-3.49672
-3.4977
-3.49881
-3.50005
-3.50143
-3.50295
-3.50461
-3.50641
-3.50835
-3.51043
-3.51266
-3.51503
-3.51756
-3.52023
-3.52305
-3.52603
-3.52916
-3.53245
-3.53589
-3.53948
-3.54323
-3.54713
-3.55116
-3.55533
-3.55963
-3.56403
-3.56851
-3.57306
-3.57765
-3.58226
-3.58684
-3.59137
-3.5958
-3.60012
-3.60427
-3.60825
-3.61203
-3.61561
-3.61899
-3.62225
-3.57367
-3.57396
-3.57439
-3.57496
-3.57565
-3.57646
-3.57739
-3.57845
-3.57964
-3.58096
-3.58241
-3.58399
-3.5857
-3.58754
-3.58951
-3.59162
-3.59386
-3.59623
-3.59874
-3.60138
-3.60415
-3.60706
-3.61011
-3.61328
-3.61658
-3.62001
-3.62356
-3.62722
-3.63099
-3.63484
-3.63877
-3.64275
-3.64676
-3.65079
-3.65479
-3.65875
-3.66262
-3.66638
-3.67
-3.67345
-3.67671
-3.67975
-3.68259
-3.68522
-3.68773
-3.65406
-3.65433
-3.65475
-3.65529
-3.65595
-3.65672
-3.65761
-3.65862
-3.65976
-3.66101
-3.66238
-3.66388
-3.6655
-3.66724
-3.6691
-3.67108
-3.67319
-3.67541
-3.67776
-3.68022
-3.6828
-3.68549
-3.6883
-3.69122
-3.69424
-3.69737
-3.70059
-3.70389
-3.70727
-3.71071
-3.7142
-3.71771
-3.72123
-3.72473
-3.72818
-3.73156
-3.73484
-3.73799
-3.74098
-3.74379
-3.74639
-3.74878
-3.75095
-3.75292
-3.75475
-3.73498
-3.73525
-3.73565
-3.73617
-3.73679
-3.73753
-3.73837
-3.73933
-3.7404
-3.74159
-3.74289
-3.7443
-3.74583
-3.74747
-3.74922
-3.75108
-3.75305
-3.75513
-3.75731
-3.7596
-3.76199
-3.76448
-3.76706
-3.76973
-3.77249
-3.77532
-3.77823
-3.7812
-3.78422
-3.78728
-3.79035
-3.79343
-3.79649
-3.79951
-3.80246
-3.80532
-3.80806
-3.81066
-3.81309
-3.81532
-3.81735
-3.81915
-3.82074
-3.82212
-3.82334
-3.81646
-3.81672
-3.8171
-3.8176
-3.81819
-3.81888
-3.81968
-3.82059
-3.8216
-3.82272
-3.82395
-3.82528
-3.82671
-3.82825
-3.82989
-3.83163
-3.83347
-3.8354
-3.83743
-3.83954
-3.84175
-3.84403
-3.8464
-3.84883
-3.85134
-3.8539
-3.85652
-3.85918
-3.86186
-3.86456
-3.86726
-3.86995
-3.87259
-3.87517
-3.87767
-3.88006
-3.88232
-3.88443
-3.88635
-3.88808
-3.88959
-3.89088
-3.89195
-3.89282
-3.89351
-3.89852
-3.89876
-3.89913
-3.89959
-3.90015
-3.90081
-3.90156
-3.90242
-3.90337
-3.90442
-3.90557
-3.90682
-3.90816
-3.9096
-3.91113
-3.91275
-3.91446
-3.91625
-3.91812
-3.92007
-3.9221
-3.92419
-3.92635
-3.92856
-3.93083
-3.93314
-3.93548
-3.93785
-3.94022
-3.9426
-3.94495
-3.94728
-3.94954
-3.95174
-3.95383
-3.9558
-3.95764
-3.95931
-3.96079
-3.96207
-3.96314
-3.96399
-3.96461
-3.96503
-3.96527
-3.98115
-3.98139
-3.98173
-3.98217
-3.9827
-3.98332
-3.98402
-3.98482
-3.98572
-3.9867
-3.98778
-3.98894
-3.9902
-3.99153
-3.99296
-3.99446
-3.99604
-3.99769
-3.99942
-4.00121
-4.00306
-4.00497
-4.00693
-4.00894
-4.01098
-4.01305
-4.01514
-4.01724
-4.01933
-4.02141
-4.02345
-4.02545
-4.02738
-4.02922
-4.03096
-4.03256
-4.03402
-4.03531
-4.03641
-4.03731
-4.038
-4.03846
-4.03871
-4.03874
-4.03859
-4.06438
-4.06461
-4.06493
-4.06535
-4.06584
-4.06642
-4.06708
-4.06783
-4.06866
-4.06958
-4.07058
-4.07167
-4.07283
-4.07407
-4.07539
-4.07678
-4.07823
-4.07976
-4.08134
-4.08298
-4.08467
-4.0864
-4.08818
-4.08998
-4.09181
-4.09366
-4.09552
-4.09737
-4.0992
-4.10101
-4.10278
-4.10448
-4.10611
-4.10764
-4.10906
-4.11035
-4.11148
-4.11245
-4.11322
-4.1138
-4.11416
-4.1143
-4.11423
-4.11394
-4.11347
-4.14823
-4.14844
-4.14874
-4.14913
-4.14959
-4.15013
-4.15075
-4.15144
-4.15222
-4.15308
-4.15401
-4.15501
-4.15609
-4.15724
-4.15845
-4.15973
-4.16107
-4.16246
-4.1639
-4.1654
-4.16693
-4.1685
-4.1701
-4.17172
-4.17336
-4.175
-4.17664
-4.17827
-4.17987
-4.18143
-4.18294
-4.18439
-4.18575
-4.18701
-4.18816
-4.18917
-4.19003
-4.19071
-4.19122
-4.19152
-4.19161
-4.19149
-4.19116
-4.19062
-4.18989
-4.23269
-4.23289
-4.23318
-4.23354
-4.23396
-4.23446
-4.23504
-4.23569
-4.23641
-4.2372
-4.23806
-4.23899
-4.23998
-4.24104
-4.24216
-4.24333
-4.24455
-4.24582
-4.24714
-4.24849
-4.24988
-4.25129
-4.25273
-4.25418
-4.25563
-4.25708
-4.25853
-4.25995
-4.26134
-4.26268
-4.26397
-4.26518
-4.26631
-4.26734
-4.26825
-4.26902
-4.26965
-4.2701
-4.27038
-4.27046
-4.27034
-4.27001
-4.26947
-4.26873
-4.26779
-4.3178
-4.31798
-4.31824
-4.31858
-4.31897
-4.31944
-4.31997
-4.32057
-4.32124
-4.32197
-4.32277
-4.32362
-4.32454
-4.32551
-4.32653
-4.32759
-4.32871
-4.32986
-4.33105
-4.33228
-4.33353
-4.33479
-4.33608
-4.33737
-4.33865
-4.33993
-4.3412
-4.34243
-4.34363
-4.34478
-4.34586
-4.34688
-4.3478
-4.34862
-4.34933
-4.34991
-4.35034
-4.3506
-4.3507
-4.35061
-4.35032
-4.34983
-4.34914
-4.34824
-4.34716
-4.40355
-4.40372
-4.40396
-4.40427
-4.40464
-4.40507
-4.40556
-4.40612
-4.40673
-4.40741
-4.40814
-4.40893
-4.40976
-4.41065
-4.41158
-4.41255
-4.41356
-4.4146
-4.41568
-4.41678
-4.4179
-4.41903
-4.42017
-4.42131
-4.42244
-4.42357
-4.42466
-4.42573
-4.42676
-4.42773
-4.42864
-4.42948
-4.43023
-4.43088
-4.43141
-4.43182
-4.43209
-4.43221
-4.43215
-4.43193
-4.43151
-4.43091
-4.43011
-4.42911
-4.42793
-4.48997
-4.49013
-4.49034
-4.49063
-4.49097
-4.49137
-4.49182
-4.49234
-4.49291
-4.49353
-4.4942
-4.49492
-4.49568
-4.49649
-4.49733
-4.49821
-4.49912
-4.50006
-4.50103
-4.50201
-4.50301
-4.50401
-4.50502
-4.50603
-4.50702
-4.508
-4.50895
-4.50987
-4.51074
-4.51156
-4.51232
-4.513
-4.5136
-4.5141
-4.51449
-4.51476
-4.5149
-4.51489
-4.51473
-4.5144
-4.5139
-4.51321
-4.51234
-4.51129
-4.51005
-4.57707
-4.57721
-4.5774
-4.57766
-4.57798
-4.57835
-4.57878
-4.57925
-4.57977
-4.58035
-4.58096
-4.58162
-4.58231
-4.58304
-4.5838
-4.58459
-4.58541
-4.58626
-4.58712
-4.58799
-4.58888
-4.58977
-4.59065
-4.59154
-4.5924
-4.59325
-4.59407
-4.59485
-4.59559
-4.59627
-4.59689
-4.59744
-4.59791
-4.59829
-4.59856
-4.59872
-4.59875
-4.59865
-4.5984
-4.598
-4.59744
-4.5967
-4.5958
-4.59472
-4.59345
-4.66487
-4.66498
-4.66516
-4.6654
-4.6657
-4.66604
-4.66644
-4.66688
-4.66736
-4.66788
-4.66844
-4.66904
-4.66966
-4.67032
-4.67101
-4.67172
-4.67245
-4.6732
-4.67397
-4.67474
-4.67552
-4.6763
-4.67708
-4.67785
-4.6786
-4.67933
-4.68003
-4.68069
-4.68131
-4.68187
-4.68238
-4.68282
-4.68318
-4.68345
-4.68362
-4.68369
-4.68364
-4.68347
-4.68316
-4.68271
-4.68211
-4.68135
-4.68043
-4.67935
-4.67809
-4.75337
-4.75347
-4.75363
-4.75386
-4.75413
-4.75446
-4.75482
-4.75523
-4.75567
-4.75615
-4.75666
-4.7572
-4.75776
-4.75835
-4.75897
-4.7596
-4.76025
-4.76092
-4.76159
-4.76227
-4.76296
-4.76364
-4.76432
-4.76498
-4.76563
-4.76625
-4.76684
-4.7674
-4.76792
-4.76838
-4.76879
-4.76913
-4.76939
-4.76958
-4.76967
-4.76967
-4.76956
-4.76933
-4.76898
-4.7685
-4.76788
-4.76712
-4.76621
-4.76514
-4.76392
-4.84259
-4.84269
-4.84284
-4.84305
-4.84331
-4.84362
-4.84396
-4.84433
-4.84474
-4.84517
-4.84564
-4.84612
-4.84663
-4.84715
-4.8477
-4.84826
-4.84883
-4.84941
-4.85001
-4.8506
-4.8512
-4.85179
-4.85237
-4.85294
-4.8535
-4.85403
-4.85453
-4.85499
-4.85542
-4.85579
-4.85611
-4.85637
-4.85657
-4.85668
-4.85671
-4.85665
-4.8565
-4.85624
-4.85586
-4.85537
-4.85475
-4.854
-4.85311
-4.85208
-4.8509
-4.93256
-4.93265
-4.9328
-4.933
-4.93325
-4.93354
-4.93386
-4.93421
-4.93458
-4.93497
-4.93539
-4.93582
-4.93627
-4.93673
-4.93721
-4.9377
-4.9382
-4.93871
-4.93923
-4.93974
-4.94026
-4.94077
-4.94127
-4.94175
-4.94222
-4.94267
-4.94309
-4.94347
-4.94382
-4.94412
-4.94437
-4.94456
-4.94469
-4.94476
-4.94474
-4.94464
-4.94446
-4.94418
-4.94379
-4.9433
-4.94269
-4.94197
-4.94111
-4.94013
-4.93901
-5.02327
-5.02338
-5.02353
-5.02374
-5.02398
-5.02426
-5.02455
-5.02487
-5.02521
-5.02556
-5.02593
-5.02631
-5.0267
-5.02711
-5.02752
-5.02795
-5.02838
-5.02882
-5.02926
-5.02971
-5.03015
-5.03058
-5.03101
-5.03142
-5.03181
-5.03219
-5.03253
-5.03285
-5.03313
-5.03337
-5.03356
-5.0337
-5.03378
-5.0338
-5.03375
-5.03363
-5.03343
-5.03314
-5.03276
-5.03229
-5.03171
-5.03102
-5.03021
-5.02929
-5.02824
-5.11477
-5.1149
-5.11507
-5.11529
-5.11553
-5.11579
-5.11606
-5.11635
-5.11665
-5.11696
-5.11728
-5.11761
-5.11795
-5.11829
-5.11865
-5.11901
-5.11938
-5.11976
-5.12013
-5.12051
-5.12088
-5.12125
-5.1216
-5.12195
-5.12228
-5.12258
-5.12287
-5.12312
-5.12335
-5.12353
-5.12368
-5.12378
-5.12383
-5.12382
-5.12375
-5.12362
-5.12341
-5.12313
-5.12277
-5.12232
-5.12178
-5.12114
-5.1204
-5.11955
-5.11859
-5.20706
-5.20725
-5.20747
-5.20769
-5.20792
-5.20816
-5.2084
-5.20865
-5.20891
-5.20917
-5.20944
-5.20972
-5.21001
-5.2103
-5.2106
-5.21091
-5.21122
-5.21153
-5.21184
-5.21216
-5.21247
-5.21277
-5.21307
-5.21335
-5.21362
-5.21387
-5.2141
-5.2143
-5.21448
-5.21462
-5.21473
-5.2148
-5.21482
-5.2148
-5.21472
-5.21459
-5.21439
-5.21413
-5.2138
-5.21339
-5.2129
-5.21233
-5.21167
-5.21091
-5.21005
-5.30016
-5.30046
-5.30076
-5.301
-5.30121
-5.3014
-5.3016
-5.3018
-5.30201
-5.30223
-5.30245
-5.30267
-5.30291
-5.30314
-5.30339
-5.30364
-5.30389
-5.30415
-5.30441
-5.30466
-5.30492
-5.30516
-5.3054
-5.30563
-5.30585
-5.30605
-5.30623
-5.30639
-5.30653
-5.30664
-5.30672
-5.30676
-5.30677
-5.30674
-5.30666
-5.30653
-5.30636
-5.30613
-5.30584
-5.30548
-5.30506
-5.30457
-5.304
-5.30335
-5.30261
-5.39405
-5.39455
-5.39497
-5.39524
-5.39541
-5.39554
-5.39567
-5.39581
-5.39596
-5.39612
-5.39628
-5.39646
-5.39664
-5.39683
-5.39703
-5.39722
-5.39743
-5.39763
-5.39784
-5.39804
-5.39824
-5.39843
-5.39862
-5.3988
-5.39897
-5.39912
-5.39926
-5.39939
-5.39949
-5.39957
-5.39963
-5.39966
-5.39966
-5.39962
-5.39956
-5.39945
-5.3993
-5.39911
-5.39887
-5.39858
-5.39824
-5.39784
-5.39738
-5.39685
-5.39625
-5.48913
-5.48982
-5.49034
-5.4905
-5.4905
-5.49052
-5.49056
-5.49063
-5.49072
-5.49082
-5.49094
-5.49107
-5.49121
-5.49136
-5.49151
-5.49166
-5.49182
-5.49197
-5.49213
-5.49228
-5.49244
-5.49258
-5.49272
-5.49286
-5.49298
-5.4931
-5.4932
-5.49329
-5.49336
-5.49342
-5.49346
-5.49348
-5.49348
-5.49345
-5.4934
-5.49332
-5.4932
-5.49306
-5.49288
-5.49267
-5.49241
-5.49211
-5.49177
-5.49138
-5.49093
-5.5868
-5.58785
-5.58853
-5.58743
-5.58658
-5.58625
-5.58616
-5.58617
-5.58621
-5.58629
-5.58638
-5.58648
-5.58659
-5.5867
-5.58681
-5.58693
-5.58705
-5.58716
-5.58728
-5.58739
-5.5875
-5.5876
-5.5877
-5.5878
-5.58788
-5.58796
-5.58803
-5.58809
-5.58814
-5.58818
-5.5882
-5.58822
-5.58821
-5.5882
-5.58816
-5.58811
-5.58804
-5.58794
-5.58783
-5.58769
-5.58753
-5.58734
-5.58712
-5.58687
-5.58658
-5.68009
-5.68951
-5.69046
-5.68607
-5.68396
-5.68323
-5.68294
-5.68283
-5.68281
-5.68284
-5.68289
-5.68296
-5.68303
-5.6831
-5.68317
-5.68324
-5.68331
-5.68338
-5.68344
-5.6835
-5.68356
-5.68361
-5.68366
-5.6837
-5.68374
-5.68378
-5.68381
-5.68383
-5.68385
-5.68387
-5.68388
-5.68389
-5.68389
-5.68388
-5.68387
-5.68385
-5.68383
-5.6838
-5.68376
-5.68371
-5.68366
-5.6836
-5.68352
-5.68344
-5.68334
)
;

boundaryField
{
    leftWall
    {
        type            calculated;
        value           nonuniform List<scalar> 
42
(
-2.28066
-2.35319
-2.42617
-2.49956
-2.57336
-2.64759
-2.72224
-2.79733
-2.87286
-2.94883
-3.02526
-3.10215
-3.1795
-3.25734
-3.33567
-3.41449
-3.49382
-3.57367
-3.65406
-3.73498
-3.81646
-3.89852
-3.98115
-4.06438
-4.14823
-4.23269
-4.3178
-4.40355
-4.48997
-4.57707
-4.66487
-4.75337
-4.84259
-4.93256
-5.02327
-5.11477
-5.20706
-5.30016
-5.39405
-5.48913
-5.5868
-5.68009
)
;
    }
    rightWall
    {
        type            calculated;
        value           nonuniform 0();
    }
    lowerWall
    {
        type            calculated;
        value           nonuniform 0();
    }
    atmosphere
    {
        type            calculated;
        value           nonuniform List<scalar> 
45
(
-5.72905
-5.73046
-5.73096
-5.7311
-5.73119
-5.73126
-5.73132
-5.73138
-5.73144
-5.7315
-5.73156
-5.73161
-5.73166
-5.73171
-5.73175
-5.73179
-5.73182
-5.73185
-5.73188
-5.7319
-5.73192
-5.73193
-5.73195
-5.73196
-5.73196
-5.73197
-5.73197
-5.73198
-5.73198
-5.73198
-5.73198
-5.73198
-5.73198
-5.73198
-5.73198
-5.73199
-5.73199
-5.732
-5.73201
-5.73202
-5.73203
-5.73205
-5.73206
-5.73208
-5.73209
)
;
    }
    defaultFaces
    {
        type            empty;
    }
    procBoundary2to0
    {
        type            processor;
        value           nonuniform List<scalar> 
46
(
-2.18536
-2.19159
-2.19831
-2.20553
-2.21324
-2.22143
-2.2301
-2.23921
-2.2487
-2.25851
-2.26859
-2.27895
-2.28963
-2.30081
-2.31272
-2.32562
-2.33978
-2.35542
-2.3727
-2.39178
-2.4128
-2.43592
-2.46131
-2.48914
-2.51968
-2.2085
-2.20858
-2.20875
-2.20908
-2.20962
-2.21039
-2.2114
-2.21266
-2.21419
-2.21598
-2.21806
-2.22042
-2.22308
-2.22606
-2.22936
-2.23301
-2.23703
-2.24143
-2.24624
-2.25149
-2.25149
)
;
    }
    procBoundary2to3
    {
        type            processor;
        value           nonuniform List<scalar> 
43
(
-2.61791
-2.68147
-2.74385
-2.80499
-2.865
-2.92404
-2.98225
-3.03976
-3.09671
-3.1533
-3.20976
-3.26642
-3.32357
-3.38151
-3.44049
-3.50072
-3.56234
-3.62547
-3.69017
-3.7565
-3.82447
-3.8941
-3.96538
-4.0383
-4.11285
-4.18899
-4.26669
-4.3459
-4.42657
-4.50863
-4.59202
-4.67667
-4.76253
-4.84956
-4.93773
-5.02705
-5.11749
-5.20907
-5.30177
-5.39557
-5.49043
-5.58627
-5.68324
)
;
    }
}


// ************************************************************************* //
