/*--------------------------------*- C++ -*----------------------------------*\
| =========                 |                                                 |
| \\      /  F ield         | OpenFOAM: The Open Source CFD Toolbox           |
|  \\    /   O peration     | Version:  5.0                                   |
|   \\  /    A nd           | Web:      www.OpenFOAM.org                      |
|    \\/     M anipulation  |                                                 |
\*---------------------------------------------------------------------------*/
FoamFile
{
    version     2.0;
    format      ascii;
    class       volScalarField;
    location    "0.8";
    object      p_rgh;
}
// * * * * * * * * * * * * * * * * * * * * * * * * * * * * * * * * * * * * * //

dimensions      [1 -1 -2 0 0 0 0];

internalField   nonuniform List<scalar> 
1915
(
0.087064
0.0808281
0.0740834
0.066828
0.0590438
0.0507137
0.0418332
0.0324121
0.0224736
0.0120568
0.00121507
-0.0100008
-0.021571
-0.0335328
-0.0459953
-0.0591391
-0.0731968
-0.0884186
-0.105037
-0.123248
-0.143213
-0.165065
-0.188918
-0.214878
-0.243046
0.128953
0.128808
0.128565
0.128165
0.127567
0.126751
0.125705
0.124417
0.122878
0.121079
0.119011
0.116662
0.114022
0.111075
0.107805
0.104191
0.100215
0.0958527
0.0910802
0.0858615
0.080161
0.0739578
0.0672506
0.0600237
0.0522515
0.0439096
0.0349797
0.0254537
0.0153363
0.00464889
-0.00656927
-0.0182658
-0.0303915
-0.0429246
-0.0558961
-0.0694035
-0.0836094
-0.0987194
-0.114949
-0.132493
-0.151512
-0.17213
-0.194431
-0.218465
-0.244256
0.122345
0.122109
0.121814
0.121354
0.120703
0.119845
0.118765
0.117454
0.1159
0.114095
0.112029
0.109692
0.107069
0.104146
0.100906
0.0973302
0.0933954
0.0890779
0.0843502
0.0791825
0.0735446
0.0674217
0.0607988
0.0536532
0.0459596
0.0376918
0.028826
0.0193444
0.00923919
-0.00148411
-0.0128041
-0.024684
-0.0370788
-0.049951
-0.0632895
-0.0771271
-0.0915465
-0.106674
-0.12266
-0.13966
-0.157813
-0.177234
-0.198003
-0.220137
-0.243588
0.115911
0.115651
0.115291
0.114774
0.114076
0.113178
0.112069
0.110736
0.10917
0.107361
0.105298
0.102972
0.100368
0.0974715
0.0942652
0.0907298
0.0868432
0.0825815
0.0779184
0.0728278
0.0672851
0.061271
0.0547639
0.0477404
0.0401749
0.032041
0.0233132
0.0139691
0.00399274
-0.00662167
-0.0178674
-0.0297237
-0.0421581
-0.0551335
-0.0686204
-0.0826097
-0.097122
-0.11221
-0.127955
-0.144452
-0.161801
-0.180093
-0.199395
-0.219711
-0.240931
0.109684
0.109401
0.108991
0.108425
0.107686
0.106755
0.10562
0.10427
0.102695
0.100884
0.0988291
0.0965173
0.0939364
0.0910714
0.0879055
0.0844194
0.0805923
0.076401
0.0718216
0.0668297
0.0614025
0.0555175
0.0491525
0.0422842
0.0348872
0.0269351
0.0184025
0.00926535
-0.000496101
-0.0108944
-0.0219324
-0.0336012
-0.0458795
-0.0587361
-0.0721365
-0.0860505
-0.100461
-0.115368
-0.130792
-0.146773
-0.163359
-0.180603
-0.198547
-0.217176
-0.236323
0.103667
0.103361
0.102912
0.102307
0.101534
0.100576
0.0994203
0.0980574
0.0964771
0.0946698
0.0926255
0.0903332
0.0877805
0.0849532
0.0818352
0.078408
0.0746518
0.0705449
0.0660648
0.0611886
0.0558938
0.0501581
0.0439592
0.0372749
0.0300808
0.0223516
0.0140625
0.00519003
-0.0042864
-0.0143821
-0.0251049
-0.0364532
-0.0484137
-0.0609622
-0.0740652
-0.0876848
-0.101784
-0.116332
-0.131308
-0.146704
-0.162523
-0.178776
-0.195475
-0.212575
-0.229849
0.0978564
0.0975328
0.0970541
0.0964183
0.0956183
0.0946391
0.093469
0.0920983
0.0905176
0.0887179
0.0866893
0.0844216
0.0819028
0.0791195
0.0760567
0.0726972
0.0690221
0.0650115
0.0606442
0.0558984
0.0507526
0.0451851
0.0391744
0.0326993
0.0257375
0.0182658
0.0102608
0.00170027
-0.00743487
-0.01716
-0.0274845
-0.0384098
-0.0499274
-0.0620176
-0.0746502
-0.087786
-0.10138
-0.115386
-0.129759
-0.14446
-0.159457
-0.174729
-0.190258
-0.205969
-0.22159
0.0922536
0.0919175
0.0914169
0.090758
0.0899382
0.0889442
0.0877652
0.0863921
0.0848162
0.0830289
0.0810212
0.0787833
0.076304
0.0735711
0.0705706
0.0672867
0.063702
0.0597981
0.0555551
0.0509528
0.0459707
0.0405882
0.0347851
0.0285413
0.0218368
0.0146513
0.00696358
-0.00124646
-0.00999583
-0.019298
-0.0291614
-0.0395877
-0.0505696
-0.0620899
-0.0741206
-0.0866238
-0.0995526
-0.112854
-0.126473
-0.140353
-0.154444
-0.168699
-0.183083
-0.1975
-0.211662
0.0868581
0.0865141
0.085999
0.0853243
0.0844915
0.0834891
0.0823071
0.0809371
0.0793713
0.0776018
0.0756202
0.0734175
0.0709835
0.0683071
0.0653756
0.0621747
0.0586886
0.0549004
0.0507918
0.0463441
0.0415383
0.0363554
0.0307764
0.0247828
0.0183567
0.0114806
0.00413682
-0.00369222
-0.0120212
-0.0208608
-0.0302171
-0.0400897
-0.0504706
-0.0613428
-0.0726792
-0.0844428
-0.0965873
-0.109059
-0.121799
-0.134745
-0.147838
-0.161021
-0.174246
-0.187415
-0.200263
0.0816694
0.081322
0.0807986
0.0801149
0.0792756
0.0782708
0.0770916
0.0757305
0.0741803
0.0724339
0.0704839
0.0683219
0.065939
0.0633251
0.060469
0.0573578
0.0539775
0.0503126
0.0463469
0.0420632
0.0374444
0.0324729
0.0271316
0.0214037
0.0152733
0.00872552
0.0017461
-0.00567888
-0.0135615
-0.0219096
-0.030726
-0.0400076
-0.0497442
-0.0599174
-0.0704997
-0.0814547
-0.0927371
-0.104294
-0.116068
-0.127996
-0.140017
-0.152073
-0.164114
-0.17605
-0.18767
0.0766871
0.0763397
0.0758137
0.075127
0.0742872
0.073286
0.0721153
0.0707686
0.0692396
0.0675219
0.0656089
0.0634932
0.0611669
0.0586213
0.0558463
0.0528308
0.0495624
0.0460276
0.0422118
0.0380998
0.0336764
0.0289258
0.0238327
0.0183825
0.0125612
0.00635613
-0.000243729
-0.00724823
-0.0146661
-0.0225027
-0.0307577
-0.0394248
-0.048491
-0.0579359
-0.0677309
-0.0778394
-0.0882168
-0.0988125
-0.109571
-0.120432
-0.131338
-0.142234
-0.153071
-0.16378
-0.174215
0.07191
0.0715656
0.0710417
0.0703574
0.0695227
0.0685306
0.067374
0.0660472
0.0645448
0.0628612
0.0609907
0.0589267
0.0566623
0.0541903
0.0515019
0.0485875
0.0454364
0.0420371
0.0383768
0.0344425
0.0302207
0.0256979
0.0208607
0.0156965
0.0101936
0.00434158
-0.00186812
-0.00844173
-0.015384
-0.0226971
-0.0303785
-0.0384188
-0.0468023
-0.0555064
-0.0645013
-0.0737497
-0.0832083
-0.0928277
-0.102555
-0.112336
-0.122116
-0.131845
-0.141482
-0.150978
-0.160252
0.0673366
0.0669975
0.0664795
0.0658024
0.0649779
0.0640001
0.0628629
0.0615614
0.0600909
0.0584466
0.0566237
0.0546165
0.0524193
0.0500259
0.0474289
0.0446203
0.0415912
0.0383318
0.0348314
0.031079
0.0270633
0.0227727
0.0181962
0.0133231
0.00814384
0.0026506
-0.00316291
-0.00930019
-0.0157622
-0.0225476
-0.0296515
-0.0370623
-0.0447622
-0.0527265
-0.0609244
-0.0693181
-0.077865
-0.0865178
-0.0952268
-0.103941
-0.112613
-0.121198
-0.129662
-0.137977
-0.146114
0.062965
0.0626328
0.0621239
0.0614581
0.0606483
0.0596897
0.0585768
0.0573055
0.0558719
0.054272
0.0525016
0.0505561
0.0484308
0.0461207
0.0436196
0.0409209
0.0380176
0.0349015
0.0315642
0.0279966
0.0241894
0.0201333
0.0158194
0.0112393
0.00638572
0.00125285
-0.00416318
-0.00986352
-0.0158464
-0.0221067
-0.0286369
-0.0354242
-0.042449
-0.0496853
-0.0571013
-0.0646596
-0.0723182
-0.080032
-0.0877544
-0.095439
-0.103042
-0.110528
-0.11787
-0.125055
-0.132092
0.0587924
0.0584685
0.0579713
0.0573203
0.0565292
0.055594
0.0545099
0.0532734
0.0518813
0.0503304
0.0486171
0.0467378
0.0446889
0.0424662
0.0400649
0.0374798
0.0347054
0.0317354
0.0285632
0.0251819
0.0215842
0.017763
0.0137115
0.00942341
0.00489381
0.000119018
-0.00490268
-0.0101704
-0.0156801
-0.0214241
-0.0273917
-0.0335687
-0.0399348
-0.0464636
-0.0531226
-0.0598749
-0.0666801
-0.0734953
-0.0802772
-0.0869835
-0.0935759
-0.100024
-0.106307
-0.112427
-0.118417
0.0548159
0.054501
0.0540175
0.0533842
0.0526152
0.0517072
0.0506559
0.0494584
0.0481121
0.0466143
0.0449623
0.0431534
0.0411848
0.0390533
0.0367552
0.0342867
0.0316437
0.0288217
0.025816
0.0226213
0.0192326
0.0156448
0.0118533
0.00785388
0.00364371
-0.000778843
-0.00541341
-0.0102573
-0.0153047
-0.020546
-0.025968
-0.0315544
-0.037285
-0.0431333
-0.0490675
-0.0550515
-0.0610466
-0.0670127
-0.0729096
-0.078699
-0.0843471
-0.0898285
-0.0951286
-0.100256
-0.105264
0.0510319
0.0507264
0.050258
0.0496448
0.0489008
0.0480232
0.0470082
0.0458533
0.0445564
0.0431156
0.0415287
0.0397939
0.0379091
0.035872
0.03368
0.0313306
0.028821
0.0261482
0.0233091
0.0203006
0.0171193
0.0137621
0.0102264
0.00650997
0.002612
-0.00146731
-0.00572558
-0.0101584
-0.0147585
-0.0195148
-0.0244126
-0.0294338
-0.0345574
-0.0397584
-0.0450059
-0.0502651
-0.0554996
-0.0606719
-0.0657449
-0.0706841
-0.07546
-0.0800513
-0.0844479
-0.088664
-0.0927595
0.047436
0.0471403
0.046688
0.0460967
0.04538
0.0445354
0.0435597
0.0424506
0.0412064
0.0398258
0.0383073
0.0366496
0.0348515
0.0329115
0.030828
0.0285995
0.0262246
0.0237016
0.0210289
0.018205
0.0152283
0.0120976
0.00881186
0.00537099
0.00177583
-0.0019716
-0.00586723
-0.00990501
-0.0140762
-0.0183688
-0.0227673
-0.0272526
-0.0318032
-0.0363945
-0.0409977
-0.0455801
-0.0501073
-0.0545445
-0.0588577
-0.0630161
-0.0669939
-0.0707738
-0.0743486
-0.0777349
-0.0809943
0.0440238
0.0437378
0.0433024
0.0427343
0.0420468
0.0412375
0.0403034
0.0392425
0.0380537
0.0367359
0.0352884
0.0337105
0.0320014
0.0301606
0.0281873
0.0260811
0.0238414
0.021468
0.0189605
0.0163189
0.0135431
0.0106336
0.00759091
0.00441662
0.00111319
-0.00231561
-0.00586425
-0.00952533
-0.0132889
-0.0171422
-0.0210694
-0.0250513
-0.0290659
-0.033089
-0.0370936
-0.0410495
-0.0449249
-0.0486874
-0.0523063
-0.0557541
-0.0590085
-0.0620551
-0.0648891
-0.0675275
-0.0700291
0.0407898
0.0405135
0.0400956
0.0395519
0.0388949
0.0381226
0.0372319
0.0362212
0.0350898
0.0338369
0.0324624
0.030966
0.0293478
0.0276076
0.0257456
0.0237621
0.0216576
0.0194328
0.0170886
0.0146261
0.0120467
0.00935211
0.00654451
0.00362686
0.000603027
-0.00252179
-0.00574072
-0.00904526
-0.0124246
-0.0158653
-0.0193516
-0.0228645
-0.0263822
-0.0298807
-0.0333344
-0.036716
-0.0399961
-0.0431452
-0.0461354
-0.0489422
-0.0515464
-0.053936
-0.0561077
-0.0580785
-0.0599017
0.0377285
0.0374619
0.0370618
0.0365432
0.035918
0.0351839
0.0343379
0.0333789
0.0323062
0.0311197
0.0298195
0.0284059
0.0268794
0.0252405
0.0234901
0.0216292
0.019659
0.0175811
0.0153975
0.0131102
0.0107219
0.00823536
0.00565406
0.00298224
0.000224984
-0.00261136
-0.00551897
-0.00848843
-0.0115083
-0.0145648
-0.017642
-0.0207215
-0.0237823
-0.026801
-0.0297529
-0.0326128
-0.0353545
-0.0379511
-0.0403773
-0.0426113
-0.0446362
-0.0464418
-0.0480266
-0.0494068
-0.0506298
0.0348337
0.034577
0.034195
0.0337023
0.0331096
0.0324144
0.031614
0.0307075
0.0296945
0.0285751
0.02735
0.0260197
0.0245852
0.0230476
0.0214082
0.0196688
0.0178313
0.0158979
0.0138714
0.0117548
0.0095516
0.00726566
0.00490135
0.00246396
-4.04283e-05
-0.0026046
-0.00522002
-0.00787659
-0.0105624
-0.0132636
-0.0159644
-0.0186468
-0.0212908
-0.0238742
-0.0263735
-0.0287648
-0.0310244
-0.0331281
-0.0350532
-0.03678
-0.0382937
-0.0395859
-0.0406558
-0.0415187
-0.0422158
0.0320992
0.0318524
0.031489
0.0310226
0.0304628
0.029807
0.0290527
0.0281991
0.0272461
0.0261941
0.025044
0.0237968
0.0224539
0.0210167
0.0194872
0.0178676
0.0161603
0.0143683
0.0124948
0.0105437
0.00851913
0.00642563
0.00426839
0.00205349
-0.000212257
-0.00252097
-0.00486362
-0.00722972
-0.00960716
-0.0119821
-0.0143389
-0.0166604
-0.0189274
-0.0211192
-0.0232137
-0.0251885
-0.027021
-0.0286895
-0.030174
-0.0314569
-0.0325251
-0.0333713
-0.0339954
-0.0344106
-0.0346526
0.0295181
0.0292818
0.0289373
0.0284975
0.0279709
0.0273547
0.0266465
0.0258457
0.0249525
0.0239675
0.0228918
0.0217268
0.0204743
0.0191361
0.0177146
0.0162123
0.0146322
0.0129776
0.0112524
0.00946089
0.00760773
0.00569802
0.00373751
0.00173281
-0.000308731
-0.00237887
-0.00446814
-0.00656598
-0.00866026
-0.0107374
-0.0127822
-0.0147782
-0.0167071
-0.0185495
-0.0202851
-0.0218927
-0.0233513
-0.0246407
-0.0257429
-0.0266426
-0.0273281
-0.0277927
-0.0280362
-0.0280699
-0.0279243
0.0270838
0.0268584
0.0265334
0.0261206
0.0256271
0.0250502
0.0243877
0.0236391
0.0228049
0.0218858
0.0208833
0.0197992
0.0186353
0.017394
0.0160779
0.0146899
0.0132331
0.0117115
0.0101292
0.00849076
0.00680131
0.00506628
0.00329183
0.00148487
-0.000346985
-0.00219522
-0.0040503
-0.00590163
-0.00773735
-0.00954426
-0.0113078
-0.0130122
-0.0146401
-0.0161736
-0.0175937
-0.018881
-0.020016
-0.0209798
-0.0217558
-0.02233
-0.0226922
-0.0228359
-0.0227607
-0.0224761
-0.0220072
0.0247894
0.0245758
0.024271
0.0238852
0.0234245
0.0228863
0.0222686
0.0215711
0.0207944
0.0199397
0.0190088
0.0180034
0.0169259
0.0157788
0.014565
0.0132875
0.0119499
0.0105561
0.0091107
0.00761843
0.00608457
0.0045148
0.0029155
0.0012937
-0.000342874
-0.00198569
-0.00362529
-0.00525123
-0.00685202
-0.00841503
-0.00992639
-0.0113711
-0.0127331
-0.0139957
-0.0151414
-0.0161523
-0.0170104
-0.0176985
-0.0182007
-0.0185041
-0.0185987
-0.0184788
-0.0181439
-0.0176014
-0.0168703
0.022628
0.0224274
0.0221435
0.0217847
0.0213562
0.0208555
0.0202811
0.019633
0.0189121
0.0181198
0.017258
0.0163289
0.015335
0.0142789
0.0131638
0.0119927
0.0107695
0.00949816
0.00818328
0.0068298
0.00544306
0.00402888
0.00259366
0.00114445
-0.000311084
-0.00176455
-0.00320672
-0.00462749
-0.00601585
-0.00735977
-0.00864625
-0.00986125
-0.0109899
-0.0120169
-0.012926
-0.0137011
-0.0143254
-0.014783
-0.0150593
-0.0151421
-0.0150219
-0.0146926
-0.0141534
-0.0134094
-0.0124739
0.0205929
0.0204067
0.0201445
0.0198122
0.0194147
0.01895
0.018417
0.0178162
0.0171487
0.0164163
0.015621
0.0147653
0.0138518
0.0128832
0.0118628
0.0107937
0.00967969
0.00852489
0.00733384
0.00611149
0.0048632
0.0035948
0.00231261
0.00102357
-0.000264866
-0.00154454
-0.0028066
-0.00404144
-0.00523861
-0.00638677
-0.00747379
-0.00848674
-0.00941201
-0.0102355
-0.0109426
-0.0115184
-0.0119477
-0.0122158
-0.0123095
-0.0122171
-0.0119295
-0.0114406
-0.0107483
-0.00985499
-0.00876956
0.0186775
0.0185073
0.018267
0.0179605
0.0175925
0.0171617
0.0166677
0.0161116
0.0154949
0.0148195
0.0140878
0.0133023
0.0124657
0.0115808
0.0106507
0.0096788
0.00866859
0.00762418
0.00655003
0.00545103
0.00433247
0.00320005
0.00205997
0.000918887
-0.000215983
-0.00133687
-0.00243541
-0.00350255
-0.00452847
-0.00550261
-0.00641371
-0.00724994
-0.00799895
-0.00864798
-0.00918388
-0.00959305
-0.00986178
-0.00997682
-0.00992598
-0.00969848
-0.00928533
-0.00868001
-0.00787958
-0.00688476
-0.0056995
0.0168752
0.0167221
0.0165039
0.0162218
0.015881
0.0154816
0.0150241
0.0145098
0.0139409
0.0133196
0.0126482
0.0119295
0.0111661
0.0103609
0.00951673
0.00863691
0.0077249
0.00678462
0.00582041
0.00483698
0.00383946
0.00283337
0.00182464
0.000819652
-0.000174775
-0.00115132
-0.00210214
-0.00301876
-0.00389206
-0.00471226
-0.00546903
-0.00615161
-0.00674886
-0.00724939
-0.00764141
-0.00791275
-0.00805111
-0.00804454
-0.00788197
-0.00755337
-0.00705006
-0.00636549
-0.00549626
-0.00444115
-0.00319914
0.0151792
0.015044
0.014847
0.0145873
0.0142711
0.0139002
0.0134761
0.0130008
0.0124767
0.0119062
0.0112919
0.0106365
0.00994261
0.00921284
0.00845008
0.00765733
0.00683791
0.00599555
0.00513437
0.00425886
0.00337388
0.00248466
0.00159684
0.000716415
-0.000150222
-0.000996236
-0.00181429
-0.00259651
-0.00333448
-0.00401926
-0.00464148
-0.00519141
-0.00565907
-0.00603427
-0.00630657
-0.00646518
-0.00649913
-0.00639777
-0.00615112
-0.00574991
-0.00518595
-0.00445284
-0.00354667
-0.00246425
-0.00120152
0.0135829
0.0134646
0.0132872
0.013047
0.0127523
0.0124069
0.0120131
0.0115737
0.0110914
0.0105687
0.0100083
0.00941285
0.00878468
0.00812636
0.00744053
0.00672993
0.00599764
0.00524715
0.00448229
0.00370724
0.0029265
0.00214497
0.00136792
0.000600948
-0.000149987
-0.00087853
-0.00157787
-0.00224075
-0.00285947
-0.00342597
-0.00393181
-0.00436822
-0.00472623
-0.00499679
-0.00517069
-0.00523843
-0.00519034
-0.00501698
-0.00470937
-0.00425907
-0.00365839
-0.00290102
-0.00198249
-0.00089854
0.000356561
0.0120794
0.0119745
0.0118138
0.0115896
0.011313
0.0109898
0.0106235
0.0102171
0.00977373
0.00929607
0.00878672
0.00824799
0.00768215
0.00709152
0.00647842
0.0058453
0.00519495
0.00453051
0.00385545
0.00317358
0.00248906
0.00180637
0.00113039
0.000466321
-0.000180332
-0.000803689
-0.00139748
-0.00195506
-0.00246951
-0.00293355
-0.0033396
-0.0036798
-0.00394612
-0.00413056
-0.00422503
-0.00422118
-0.00411049
-0.00388456
-0.00353537
-0.00305528
-0.00243713
-0.0016747
-0.000763339
0.000301546
0.00152789
0.0106624
0.0105616
0.0104143
0.0102022
0.00994011
0.00963612
0.00929449
0.00891877
0.00851206
0.00807714
0.00761634
0.00713174
0.00662533
0.00609905
0.00555485
0.00499483
0.00442145
0.00383745
0.00324592
0.0026503
0.00205432
0.00146207
0.000877997
0.000306876
-0.000246209
-0.00077585
-0.00127632
-0.00174164
-0.00216557
-0.00254163
-0.00286301
-0.0031227
-0.0033136
-0.00342866
-0.00346075
-0.00340248
-0.00324627
-0.00298471
-0.00261068
-0.00211726
-0.00149778
-0.000746297
0.00014189
0.00117224
0.00235355
0.00931401
0.00922288
0.00907707
0.00887036
0.00861884
0.00833134
0.00801243
0.00766574
0.00729431
0.0069007
0.00648687
0.00605453
0.00560522
0.00514042
0.00466166
0.00417072
0.00366964
0.00316078
0.00264684
0.00213084
0.00161612
0.00110637
0.000605603
0.000118184
-0.000351231
-0.000797716
-0.00121611
-0.00160108
-0.00194708
-0.00224836
-0.00249886
-0.00269239
-0.00282271
-0.0028836
-0.00286873
-0.0027715
-0.0025852
-0.00230327
-0.00191942
-0.00142737
-0.000820916
-9.43567e-05
0.000757343
0.00174059
0.00286342
0.00804106
0.00793525
0.00778327
0.00757638
0.00733222
0.00705959
0.00676272
0.00644486
0.00610869
0.00575619
0.00538879
0.00500766
0.00461377
0.0042081
0.00379176
0.00336617
0.00293301
0.00249427
0.00205226
0.00160963
0.00116936
0.000734735
0.000309366
-0.00010281
-0.000497579
-0.000870521
-0.00121706
-0.00153251
-0.00181201
-0.00205053
-0.00224277
-0.00238327
-0.00246654
-0.00248705
-0.00243916
-0.00231705
-0.0021148
-0.00182662
-0.00144691
-0.000969964
-0.000390032
0.000298484
0.00110095
0.00202371
0.00307578
0.00682172
0.00668834
0.00651439
0.00629986
0.00606096
0.00580362
0.0055304
0.00524339
0.00494434
0.00463432
0.004314
0.00398385
0.00364428
0.00329579
0.00293918
0.00257551
0.00220613
0.00183272
0.0014573
0.00108222
0.000710114
0.000343889
-1.32588e-05
-0.000357831
-0.000686086
-0.000994134
-0.00127801
-0.00153368
-0.00175701
-0.00194364
-0.00208897
-0.00218819
-0.00223645
-0.00222889
-0.00216059
-0.00202647
-0.00182138
-0.00154022
-0.00117795
-0.000729397
-0.000189216
0.000447934
0.00118724
0.00203507
0.00300126
0.00564022
0.00545039
0.00523438
0.00500803
0.00477869
0.00454325
0.00430023
0.00404985
0.00379247
0.0035281
0.00325662
0.0029779
0.00269193
0.00239895
0.00209947
0.00179433
0.00148467
0.00117199
0.00085816
0.000545274
0.000235636
-6.82559e-05
-0.000363636
-0.000647448
-0.000916435
-0.00116727
-0.00139664
-0.00160121
-0.00177749
-0.00192173
-0.00202992
-0.00209791
-0.00212155
-0.00209674
-0.00201931
-0.0018849
-0.00168901
-0.00142715
-0.00109486
-0.000687534
-0.000200385
0.000371396
0.00103271
0.00179041
0.0026529
0.00449791
0.00419522
0.00389906
0.00365745
0.00345176
0.0032557
0.00305799
0.00285564
0.00264784
0.00243407
0.00221397
0.0019873
0.00175407
0.00151456
0.0012693
0.00101908
0.000765066
0.000508755
0.000251879
-3.70732e-06
-0.000256062
-0.000503085
-0.000742422
-0.000971467
-0.0011875
-0.00138783
-0.00156979
-0.00173065
-0.00186746
-0.00197703
-0.00205603
-0.00210113
-0.00210904
-0.00207642
-0.00199974
-0.00187526
-0.00169916
-0.00146767
-0.00117704
-0.000823366
-0.00040246
9.00379e-05
0.000658745
0.00130953
0.00205032
0.0034193
0.00291945
0.00250052
0.00223138
0.00206527
0.00193318
0.00180196
0.00166249
0.00151337
0.00135489
0.00118765
0.00101235
0.000829701
0.000640535
0.000445765
0.000246484
4.40131e-05
-0.000160141
-0.000364392
-0.000567161
-0.000766844
-0.000961718
-0.00114986
-0.0013292
-0.00149758
-0.00165293
-0.00179312
-0.00191595
-0.00201905
-0.0021
-0.00215635
-0.00218564
-0.0021853
-0.00215258
-0.00208459
-0.00197842
-0.00183114
-0.00163978
-0.00140128
-0.00111237
-0.000769556
-0.000369104
9.27308e-05
0.000620371
0.00122093
0.00201613
0.00132637
0.000802316
0.000645075
0.000640878
0.000629631
0.000585718
0.000516433
0.000426804
0.000320461
0.000200859
7.08066e-05
-6.75658e-05
-0.000212537
-0.000362596
-0.000516319
-0.000672301
-0.000829141
-0.000985475
-0.00114001
-0.00129149
-0.00143863
-0.00158003
-0.00171415
-0.00183938
-0.00195414
-0.00205688
-0.00214612
-0.0022203
-0.00227782
-0.00231694
-0.00233583
-0.00233258
-0.00230528
-0.00225197
-0.00217062
-0.00205909
-0.00191511
-0.00173638
-0.00152051
-0.00126491
-0.000967057
-0.000624233
-0.000232493
0.000212942
-0.00110812
-0.00216153
-0.00284663
-0.00173895
-0.000887798
-0.000562333
-0.000476502
-0.000478563
-0.000524929
-0.000598635
-0.000689123
-0.000790046
-0.000897752
-0.00100994
-0.00112496
-0.00124151
-0.00135846
-0.00147472
-0.00158928
-0.00170129
-0.00180997
-0.00191459
-0.00201423
-0.00210784
-0.00219435
-0.00227281
-0.00234247
-0.00240261
-0.00245233
-0.00249057
-0.00251623
-0.00252832
-0.00252588
-0.00250784
-0.00247298
-0.00241994
-0.00234745
-0.00225431
-0.00213926
-0.00200083
-0.00183733
-0.00164713
-0.00142859
-0.00117963
-0.000896947
0.00102121
-0.00839947
-0.00935363
-0.00496388
-0.00285596
-0.00211667
-0.00182858
-0.00171652
-0.00169728
-0.00172742
-0.00178207
-0.00184826
-0.00191945
-0.00199217
-0.00206455
-0.00213546
-0.00220416
-0.0022701
-0.00233289
-0.00239234
-0.00244833
-0.00250068
-0.00254911
-0.00259327
-0.00263293
-0.00266803
-0.0026986
-0.00272455
-0.00274563
-0.0027616
-0.00277235
-0.00277786
-0.00277798
-0.00277237
-0.00276069
-0.00274276
-0.00271853
-0.00268776
-0.00264989
-0.00260431
-0.00255055
-0.00248764
-0.00241491
-0.0023314
-0.00223546
)
;

boundaryField
{
    leftWall
    {
        type            fixedFluxPressure;
        gradient        uniform 0;
        value           nonuniform List<scalar> 
42
(
0.128953
0.122345
0.115911
0.109684
0.103667
0.0978564
0.0922536
0.0868581
0.0816694
0.0766871
0.07191
0.0673366
0.062965
0.0587924
0.0548159
0.0510319
0.047436
0.0440238
0.0407898
0.0377285
0.0348337
0.0320992
0.0295181
0.0270838
0.0247894
0.022628
0.0205929
0.0186775
0.0168752
0.0151792
0.0135829
0.0120794
0.0106624
0.00931401
0.00804106
0.00682172
0.00564022
0.00449791
0.0034193
0.00201613
-0.00110812
0.00102121
)
;
    }
    rightWall
    {
        type            fixedFluxPressure;
        gradient        nonuniform 0();
        value           nonuniform 0();
    }
    lowerWall
    {
        type            fixedFluxPressure;
        gradient        nonuniform 0();
        value           nonuniform 0();
    }
    atmosphere
    {
        type            totalPressure;
        rho             rho;
        psi             none;
        gamma           1;
        p0              uniform 0;
        value           nonuniform List<scalar> 
45
(
-6.0341e-06
-0.00142373
-0.00191951
-0.00206096
-0.00214683
-0.00221567
-0.00227931
-0.00234131
-0.00240215
-0.00246124
-0.00251783
-0.00257126
-0.00262107
-0.00266697
-0.00270878
-0.00274648
-0.00278011
-0.00280978
-0.00283564
-0.00285788
-0.00287673
-0.00289242
-0.00290521
-0.00291537
-0.00292318
-0.00292892
-0.00293291
-0.00293545
-0.00293688
-0.00293753
-0.00293776
-0.00293794
-0.00293845
-0.00293965
-0.00294194
-0.00294564
-0.00295108
-0.00295849
-0.00296801
-0.00297966
-0.00299323
-0.00300828
-0.00302404
-0.00303929
-0.00305232
)
;
    }
    defaultFaces
    {
        type            empty;
    }
    procBoundary2to0
    {
        type            processor;
        value           nonuniform List<scalar> 
46
(
0.0941979
0.087971
0.0812488
0.0740327
0.0663233
0.0581251
0.0494554
0.0403484
0.0308582
0.0210478
0.010965
0.000613082
-0.0100754
-0.0212547
-0.0331583
-0.0460606
-0.0602234
-0.0758615
-0.0931445
-0.112221
-0.133238
-0.156357
-0.181748
-0.209581
-0.240126
0.135782
0.135704
0.135535
0.135205
0.134665
0.133895
0.132884
0.13162
0.130094
0.128299
0.126225
0.123864
0.121203
0.118228
0.114922
0.111268
0.10725
0.10285
0.0980443
0.0927933
0.0927933
)
;
    }
    procBoundary2to3
    {
        type            processor;
        value           nonuniform List<scalar> 
43
(
-0.273627
-0.271858
-0.268312
-0.262909
-0.255755
-0.247007
-0.236805
-0.225267
-0.212527
-0.19877
-0.184248
-0.169253
-0.15409
-0.139043
-0.124359
-0.110233
-0.0968154
-0.0842071
-0.0724743
-0.0616538
-0.0517624
-0.042802
-0.0347641
-0.0276316
-0.0213788
-0.0159712
-0.0113656
-0.00751007
-0.00434152
-0.0017872
0.00022856
0.00177723
0.00291784
0.0036946
0.00413852
0.00426873
0.00409568
0.00363048
0.00288964
0.0018996
0.000712846
-0.000582342
-0.00212686
)
;
    }
}


// ************************************************************************* //
