/*--------------------------------*- C++ -*----------------------------------*\
| =========                 |                                                 |
| \\      /  F ield         | OpenFOAM: The Open Source CFD Toolbox           |
|  \\    /   O peration     | Version:  5.0                                   |
|   \\  /    A nd           | Web:      www.OpenFOAM.org                      |
|    \\/     M anipulation  |                                                 |
\*---------------------------------------------------------------------------*/
FoamFile
{
    version     2.0;
    format      ascii;
    class       volScalarField;
    location    "0.35";
    object      alpha.water;
}
// * * * * * * * * * * * * * * * * * * * * * * * * * * * * * * * * * * * * * //

dimensions      [0 0 0 0 0 0 0];

internalField   nonuniform List<scalar> 
1935
(
1
1
1
1
1
1
1
1
1
1
1
1
1
1
1
1
1
1
1
1
1
1
1
1
1
1
1
1
1
1
1
1
1
1
1
1
1
1
1
1
1
0.994866
0.882849
0.895949
1
1
1
1
1
1
1
1
1
1
1
1
1
1
1
1
1
1
1
1
1
1
1
1
1
1
1
1
1
1
1
1
1
1
1
1
1
1
1
1
1
1
0.968669
0.918504
1
1
1
1
1
1
1
1
1
1
1
1
1
1
1
1
1
1
1
1
1
1
1
1
1
1
1
1
1
1
1
1
1
1
1
1
1
1
1
1
1
1
0.999993
0.996064
1
1
1
1
1
1
1
1
1
1
1
1
1
1
1
1
1
1
1
1
1
1
1
1
1
1
1
1
1
1
1
1
1
1
1
1
1
1
1
1
1
1
1
0.999974
1
1
1
1
1
1
1
1
1
1
1
1
1
1
1
1
1
1
1
1
1
1
1
1
1
1
1
1
1
1
1
1
1
1
1
1
1
1
1
1
1
1
1
0.999997
1
1
1
1
1
1
1
1
1
1
1
1
1
1
1
1
1
1
1
1
1
1
1
1
1
1
1
1
1
1
1
1
1
1
1
1
1
1
1
1
1
1
1
0.999999
1
1
1
1
1
1
1
1
1
1
1
1
1
1
1
1
1
1
1
1
1
1
1
1
1
1
1
1
1
1
1
1
1
1
1
1
1
1
1
1
1
1
1
1
1
1
1
1
1
1
1
1
1
1
1
1
1
1
1
1
1
1
1
1
1
1
1
1
1
1
1
1
1
1
1
1
1
1
1
1
1
1
1
1
1
1
1
1
1
1
1
1
1
1
1
1
1
1
1
1
1
1
1
1
1
1
1
1
1
1
1
1
1
1
1
1
1
1
1
1
1
1
1
1
1
1
1
1
1
1
1
1
1
1
1
1
1
1
1
1
1
1
1
1
1
1
1
1
1
1
1
1
1
1
1
1
1
1
1
1
1
1
1
1
1
1
1
1
1
1
1
1
1
1
1
1
1
1
1
1
1
1
1
1
1
1
1
1
1
1
1
1
1
1
1
1
1
1
1
1
1
1
1
1
1
1
1
1
1
1
1
1
1
1
1
1
1
1
1
1
1
1
1
1
1
1
1
1
1
1
1
1
1
1
1
1
1
1
1
1
1
1
1
1
1
1
1
1
1
1
1
1
1
1
1
1
1
1
1
1
1
1
1
1
1
1
1
1
1
1
1
1
1
1
1
1
1
1
1
1
1
1
1
1
1
1
1
1
1
1
1
1
1
1
1
1
1
1
1
1
1
1
1
1
1
1
1
1
1
1
1
1
1
1
1
1
1
1
1
1
1
1
1
1
1
1
1
1
1
1
1
1
1
1
1
1
1
1
1
1
1
1
1
1
1
1
1
1
1
1
1
1
1
1
1
1
1
1
1
1
1
1
1
1
1
1
1
1
1
1
1
1
1
1
1
1
1
1
1
1
1
1
1
1
1
1
1
1
1
1
1
1
1
1
1
1
1
1
1
1
1
1
1
1
1
1
1
1
1
1
1
0.999999
0.999999
0.999999
0.999999
0.999999
0.999999
0.999999
0.999999
0.999999
0.999999
0.999999
0.999999
0.999999
0.999999
1
1
1
1
1
1
1
1
1
1
1
1
1
1
1
1
0.999999
0.999999
0.999999
0.999999
0.999998
0.999998
0.999998
0.999997
0.999997
0.999997
0.999996
0.999996
0.999996
0.999996
0.999996
0.999995
0.999995
0.999995
0.999994
0.999994
0.999993
0.999993
0.999993
0.999993
0.999993
0.999993
0.999992
0.999993
0.999995
0.999997
0.999998
0.999999
1
1
1
1
1
1
1
1
1
1
1
1
0.999994
0.999992
0.999991
0.999988
0.999985
0.999982
0.999979
0.999977
0.999975
0.999973
0.999971
0.999969
0.999967
0.999966
0.999964
0.999961
0.999959
0.999955
0.999952
0.999947
0.999943
0.999939
0.999938
0.999937
0.999936
0.99993
0.999926
0.999932
0.999946
0.999962
0.999978
0.999993
0.999998
0.999999
0.999998
0.999999
1
1
1
1
1
1
1
1
0.999945
0.999933
0.999923
0.999901
0.999877
0.999852
0.99983
0.999811
0.999794
0.99978
0.999767
0.999755
0.999744
0.999732
0.999719
0.999701
0.999678
0.999652
0.999624
0.999591
0.999555
0.99952
0.999531
0.999536
0.999502
0.999425
0.99934
0.999353
0.999486
0.999688
0.999836
0.999929
0.999968
0.999987
0.999983
0.999982
0.999998
1
1
1
1
1
1
1
0.999553
0.999462
0.999378
0.999197
0.998995
0.998806
0.998641
0.998503
0.998391
0.9983
0.998224
0.998149
0.998082
0.99801
0.99792
0.997794
0.997632
0.997431
0.997186
0.996897
0.996588
0.996275
0.995481
0.993701
0.989057
0.971455
0.948323
0.95039
0.965202
0.989911
0.998224
0.99905
0.999524
0.999813
0.99993
0.999794
0.999902
1
1
1
1
1
1
1.00001
0.996563
0.994481
0.983962
0.958546
0.932072
0.910452
0.894533
0.883349
0.876003
0.871421
0.868256
0.864269
0.860986
0.856086
0.848022
0.834353
0.815707
0.792511
0.765767
0.73164
0.690498
0.646749
0.61122
0.57548
0.498783
0.37706
0.298229
0.30844
0.369914
0.518111
0.701499
0.836737
0.908061
0.94931
0.977229
0.993205
0.999926
1
0.999996
1
1
1
1
1
0.798039
0.665828
0.593732
0.46419
0.342332
0.272336
0.233095
0.209513
0.194908
0.186283
0.181444
0.178303
0.174034
0.170748
0.16513
0.15615
0.141499
0.124297
0.105504
0.0864484
0.0651355
0.044409
0.0264549
0.0134836
-1.33203e-06
-1.16743e-08
-3.64884e-11
0
-6.50655e-24
2.43032e-20
0.00928067
0.0620851
0.150476
0.23247
0.31241
0.419395
0.571933
0.753794
0.967721
1.00002
1.00012
0.999999
1
1.00001
1
0.0963685
0.0409874
0.0122623
-6.95695e-12
-6.63793e-16
-7.30847e-20
-1.96984e-24
0
0
-8.54728e-09
-3.01409e-08
-8.33576e-08
-1.45687e-07
-1.56986e-07
-1.13628e-07
-8.21557e-08
-6.48254e-07
-2.57304e-07
-1.15439e-07
-8.21637e-08
-6.70708e-08
-5.3002e-08
-4.05539e-08
-2.97731e-08
-1.26056e-08
-5.16432e-08
-1.53296e-07
-2.94765e-07
-4.17681e-06
-7.4627e-06
-7.25878e-06
-4.96849e-06
-2.82546e-06
-1.31961e-06
-5.62893e-07
-1.33082e-07
0.00626697
0.0460778
0.116551
0.304682
0.836459
0.999737
1.00047
0.999998
1
-4.0585e-10
-9.9006e-11
-8.30419e-12
-5.15904e-13
-8.71429e-14
-2.12094e-13
-2.17933e-10
-1.66581e-10
-3.72545e-09
-2.45132e-08
-9.35673e-08
-2.75258e-07
-5.03328e-07
-5.32609e-07
-3.77769e-07
-2.80971e-07
-2.53612e-07
-2.53769e-07
-2.28877e-07
-2.11907e-07
-1.81715e-07
-1.44644e-07
-1.10981e-07
-8.17961e-08
-5.82078e-08
-1.25162e-07
-3.32887e-07
-6.03929e-07
-5.67971e-06
-1.03857e-05
-1.10591e-05
-8.66082e-06
-5.5997e-06
-3.17424e-06
-1.65262e-06
-8.09615e-07
-3.82725e-07
-1.74697e-07
-1.4366e-06
6.83227e-05
0.0519498
0.179183
0.616256
0.999055
1.00011
-1.47881e-13
-1.72626e-13
-2.18473e-13
-2.17055e-13
-1.996e-13
-5.51219e-13
-4.03985e-10
-2.87535e-10
-1.67657e-10
-3.19252e-10
-4.37003e-10
-9.72661e-09
-4.80644e-08
-1.13248e-07
-1.93492e-07
-2.7076e-07
-3.29283e-07
-3.60335e-07
-3.55496e-07
-3.19981e-07
-2.69423e-07
-2.14633e-07
-1.6335e-07
-1.19637e-07
-8.48921e-08
-1.4005e-07
-3.23826e-07
-5.64225e-07
-7.51114e-07
-8.21444e-07
-7.79311e-07
-6.67554e-07
-5.32508e-07
-4.04984e-07
-2.98245e-07
-2.14052e-07
-1.49444e-07
-1.02947e-07
-5.99149e-08
-1.23619e-07
5.27702e-05
0.000258551
0.0232514
0.139278
0.522476
-1.48877e-13
-2.57058e-13
-2.55826e-13
-2.21793e-13
-2.52219e-13
-8.26779e-13
-1.91356e-12
-1.23128e-11
-1.40578e-11
-1.32836e-11
-5.6657e-11
-4.02339e-09
-3.09284e-08
-9.45807e-08
-1.87805e-07
-2.85037e-07
-3.60038e-07
-3.96777e-07
-3.92305e-07
-3.55906e-07
-3.01126e-07
-2.40535e-07
-1.83101e-07
-1.33858e-07
-9.47196e-08
-9.85917e-08
-1.59098e-07
-2.46998e-07
-3.20271e-07
-3.54885e-07
-3.506e-07
-3.2045e-07
-2.78893e-07
-2.35741e-07
-1.95596e-07
-1.59673e-07
-1.27803e-07
-9.9522e-08
-6.58457e-08
-4.80644e-08
-4.75426e-06
1.04682e-05
0.000117624
0.000506439
0.014964
-1.30554e-13
-1.94888e-13
-1.31233e-13
-1.00307e-13
-2.31182e-13
-9.62318e-13
-2.24842e-12
-3.78767e-12
-5.72481e-12
-9.38568e-12
-1.98165e-11
-3.16295e-09
-2.45933e-08
-7.84228e-08
-1.60683e-07
-2.49699e-07
-3.20418e-07
-3.56765e-07
-3.55805e-07
-3.24984e-07
-2.76308e-07
-2.21389e-07
-1.68792e-07
-1.23451e-07
-8.73328e-08
-6.0526e-08
-4.23578e-08
-3.22332e-08
-2.97396e-08
-3.39168e-08
-4.26497e-08
-5.29762e-08
-6.20455e-08
-6.79414e-08
-6.99348e-08
-6.82403e-08
-6.36048e-08
-5.69654e-08
-4.60623e-08
-4.45004e-10
-4.90385e-08
1.59944e-07
-3.81819e-06
3.20656e-05
0.000195884
-7.29718e-14
-1.06081e-13
-2.5605e-14
-5.03695e-14
-2.2782e-13
-1.0148e-12
-2.35958e-12
-3.95616e-12
-5.96689e-12
-9.76712e-12
-1.99386e-11
-2.191e-09
-1.73782e-08
-5.6712e-08
-1.18555e-07
-1.87429e-07
-2.43819e-07
-2.74315e-07
-2.75715e-07
-2.53214e-07
-2.1602e-07
-1.73362e-07
-1.322e-07
-9.6619e-08
-6.82862e-08
-4.72987e-08
-3.30056e-08
-2.45567e-08
-2.10324e-08
-2.13153e-08
-2.40345e-08
-2.77348e-08
-3.11687e-08
-3.3516e-08
-3.44328e-08
-3.39553e-08
-3.23483e-08
-2.99684e-08
-2.708e-08
-1.6979e-08
-1.72285e-09
-1.16342e-08
9.01486e-08
1.2995e-06
5.83957e-08
-1.77419e-14
-2.72178e-14
-1.01877e-14
-4.51558e-14
-2.28909e-13
-1.023e-12
-2.34523e-12
-3.89071e-12
-5.87058e-12
-9.71064e-12
-1.93769e-11
-1.31798e-09
-1.0793e-08
-3.61009e-08
-7.69492e-08
-1.23521e-07
-1.62529e-07
-1.84327e-07
-1.86191e-07
-1.71397e-07
-1.46242e-07
-1.17181e-07
-8.91211e-08
-6.49421e-08
-4.57957e-08
-3.17064e-08
-2.21271e-08
-1.62944e-08
-1.33846e-08
-1.25586e-08
-1.29984e-08
-1.39734e-08
-1.49178e-08
-1.54784e-08
-1.55108e-08
-1.50316e-08
-1.41529e-08
-1.30222e-08
-1.17773e-08
-1.03671e-08
-1.39176e-09
-8.4372e-10
-1.04131e-09
1.46307e-08
4.99536e-07
7.08936e-15
-1.597e-15
-4.81884e-15
-4.26281e-14
-2.25943e-13
-1.00908e-12
-2.25942e-12
-3.68104e-12
-5.56734e-12
-9.41161e-12
-1.86774e-11
-7.2653e-10
-6.08915e-09
-2.07766e-08
-4.49293e-08
-7.2839e-08
-9.64172e-08
-1.09633e-07
-1.10708e-07
-1.01636e-07
-8.63278e-08
-6.87845e-08
-5.20124e-08
-3.77243e-08
-2.65508e-08
-1.84304e-08
-1.29589e-08
-9.61082e-09
-7.84651e-09
-7.15445e-09
-7.07687e-09
-7.23826e-09
-7.37104e-09
-7.3251e-09
-7.05394e-09
-6.58464e-09
-5.98223e-09
-5.31972e-09
-4.65955e-09
-4.04931e-09
-3.18808e-09
-4.15549e-12
-7.30524e-10
-1.74176e-10
1.82778e-08
8.20871e-15
7.26172e-16
-4.43408e-15
-4.13632e-14
-2.20322e-13
-9.77759e-13
-2.11529e-12
-3.36235e-12
-5.12392e-12
-8.96907e-12
-1.79958e-11
-3.8264e-10
-3.20675e-09
-1.10339e-08
-2.39659e-08
-3.88782e-08
-5.13313e-08
-5.80596e-08
-5.81923e-08
-5.29438e-08
-4.45357e-08
-3.51621e-08
-2.64038e-08
-1.90996e-08
-1.34997e-08
-9.49959e-09
-6.83493e-09
-5.20002e-09
-4.30123e-09
-3.87573e-09
-3.70139e-09
-3.60753e-09
-3.48277e-09
-3.27519e-09
-2.97914e-09
-2.61873e-09
-2.22993e-09
-1.84378e-09
-1.48586e-09
-1.17069e-09
-9.51569e-10
-5.82472e-10
-2.18109e-11
1.12769e-11
5.78221e-10
1.13505e-15
-1.37077e-16
-4.7669e-15
-3.98893e-14
-2.1095e-13
-9.24404e-13
-1.91229e-12
-2.95539e-12
-4.58638e-12
-8.42611e-12
-1.72823e-11
-1.98981e-10
-1.59289e-09
-5.43144e-09
-1.16947e-08
-1.8771e-08
-2.44754e-08
-2.72982e-08
-2.69573e-08
-2.41716e-08
-2.00805e-08
-1.57288e-08
-1.18075e-08
-8.63292e-09
-6.25381e-09
-4.57592e-09
-3.45222e-09
-2.73318e-09
-2.28752e-09
-2.00733e-09
-1.80905e-09
-1.63471e-09
-1.45092e-09
-1.2481e-09
-1.0293e-09
-8.05485e-10
-5.96149e-10
-3.98113e-10
-2.19767e-10
-8.26418e-11
1.53859e-12
1.89459e-10
2.12931e-10
2.0692e-10
2.72244e-10
1.60704e-16
-3.78572e-16
-4.85958e-15
-3.77086e-14
-1.9669e-13
-8.44736e-13
-1.65522e-12
-2.48961e-12
-4.00052e-12
-7.80257e-12
-1.64089e-11
-1.04845e-10
-7.41601e-10
-2.449e-09
-5.15427e-09
-8.09583e-09
-1.03296e-08
-1.12785e-08
-1.09248e-08
-9.65571e-09
-7.98042e-09
-6.30944e-09
-4.87069e-09
-3.73558e-09
-2.88632e-09
-2.26866e-09
-1.8206e-09
-1.48756e-09
-1.22839e-09
-1.01463e-09
-8.28079e-10
-6.58207e-10
-4.99598e-10
-3.53042e-10
-2.18761e-10
-8.94009e-11
-1.561e-12
8.66427e-11
2.21108e-10
3.61672e-10
4.83058e-10
6.23424e-10
7.89587e-10
7.74776e-10
7.72758e-10
3.19361e-18
-4.56337e-16
-4.71801e-15
-3.46787e-14
-1.77159e-13
-7.39407e-13
-1.36104e-12
-2.00632e-12
-3.41183e-12
-7.10509e-12
-1.52567e-11
-5.83925e-11
-3.23373e-10
-9.98034e-10
-2.01916e-09
-3.0707e-09
-3.80801e-09
-4.06289e-09
-3.88582e-09
-3.45509e-09
-2.95376e-09
-2.49292e-09
-2.1052e-09
-1.78154e-09
-1.50612e-09
-1.2656e-09
-1.04828e-09
-8.47044e-10
-6.60973e-10
-4.92628e-10
-3.45053e-10
-2.18044e-10
-1.11931e-10
-1.93769e-11
3.92351e-11
1.30453e-10
2.29369e-10
3.179e-10
4.02977e-10
4.83869e-10
5.56895e-10
6.69009e-10
9.19952e-10
9.44696e-10
9.17369e-10
-1.74208e-17
-4.54146e-16
-4.39228e-15
-3.08135e-14
-1.53013e-13
-6.15003e-13
-1.05664e-12
-1.54979e-12
-2.85567e-12
-6.332e-12
-1.37608e-11
-3.63087e-11
-1.37337e-10
-3.71332e-10
-7.03374e-10
-1.02417e-09
-1.23538e-09
-1.31142e-09
-1.29556e-09
-1.25212e-09
-1.21822e-09
-1.18811e-09
-1.13511e-09
-1.04389e-09
-9.20354e-10
-7.77462e-10
-6.25371e-10
-4.74072e-10
-3.3417e-10
-2.13565e-10
-1.15542e-10
-3.52872e-11
1.49941e-11
8.90305e-11
1.59819e-10
2.18931e-10
2.67708e-10
3.06819e-10
3.43332e-10
3.90507e-10
4.48399e-10
5.07143e-10
5.74981e-10
6.99986e-10
8.72404e-10
-2.42393e-17
-4.15891e-16
-3.91802e-15
-2.62763e-14
-1.2589e-13
-4.82692e-13
-7.71564e-13
-1.15472e-12
-2.34984e-12
-5.48292e-12
-1.19333e-11
-2.54172e-11
-6.30679e-11
-1.36543e-10
-2.32517e-10
-3.22332e-10
-3.9023e-10
-4.46448e-10
-5.14586e-10
-6.05859e-10
-7.01985e-10
-7.63826e-10
-7.6163e-10
-6.96822e-10
-5.93284e-10
-4.73442e-10
-3.51264e-10
-2.38162e-10
-1.42958e-10
-6.89612e-11
-1.29809e-11
2.67274e-11
8.2368e-11
1.28481e-10
1.5145e-10
1.59655e-10
1.70067e-10
1.85723e-10
2.06709e-10
2.31658e-10
2.59701e-10
2.90416e-10
3.24988e-10
3.75406e-10
4.6161e-10
-2.3675e-17
-3.6069e-16
-3.33618e-15
-2.13677e-14
-9.80644e-14
-3.55305e-13
-5.29541e-13
-8.37908e-13
-1.89599e-12
-4.57197e-12
-9.86861e-12
-1.90442e-11
-3.54909e-11
-6.07e-11
-9.13203e-11
-1.23655e-10
-1.63314e-10
-2.24371e-10
-3.16242e-10
-4.27823e-10
-5.2421e-10
-5.6586e-10
-5.37966e-10
-4.59219e-10
-3.60465e-10
-2.61482e-10
-1.71776e-10
-9.82199e-11
-4.37983e-11
-5.60912e-12
2.16331e-11
5.94107e-11
7.38729e-11
7.59149e-11
8.05506e-11
8.73446e-11
9.52246e-11
1.04984e-10
1.17944e-10
1.35178e-10
1.60639e-10
1.89831e-10
2.3245e-10
3.06803e-10
3.94186e-10
-2.0245e-17
-2.98045e-16
-2.69843e-15
-1.64691e-14
-7.19111e-14
-2.4397e-13
-3.42843e-13
-5.97816e-13
-1.48841e-12
-3.6364e-12
-7.7248e-12
-1.42803e-11
-2.37691e-11
-3.61834e-11
-5.13333e-11
-7.16881e-11
-1.0654e-10
-1.66771e-10
-2.52675e-10
-3.44122e-10
-4.05478e-10
-4.08686e-10
-3.55874e-10
-2.75116e-10
-1.93965e-10
-1.23923e-10
-6.84845e-11
-2.92384e-11
-3.96812e-12
1.39007e-11
3.26751e-11
3.24082e-11
3.4514e-11
3.82284e-11
4.15273e-11
4.41933e-11
4.77994e-11
5.52922e-11
6.99428e-11
9.50528e-11
1.34685e-10
1.69918e-10
2.67054e-10
4.1596e-10
4.70105e-10
-1.60305e-17
-2.34324e-16
-2.0623e-15
-1.19585e-14
-4.93607e-14
-1.55571e-13
-2.11337e-13
-4.21066e-13
-1.1237e-12
-2.73333e-12
-5.68431e-12
-1.02393e-11
-1.64591e-11
-2.4344e-11
-3.46959e-11
-5.14579e-11
-8.3175e-11
-1.36177e-10
-2.04708e-10
-2.66486e-10
-2.9266e-10
-2.69461e-10
-2.10757e-10
-1.44564e-10
-8.92561e-11
-4.80514e-11
-2.02331e-11
-3.64212e-12
6.83673e-12
1.1205e-11
1.23145e-11
1.43637e-11
1.61548e-11
1.71835e-11
1.78828e-11
1.89587e-11
2.22928e-11
3.20808e-11
5.33294e-11
8.79795e-11
1.39342e-10
1.96183e-10
3.67211e-10
4.85593e-10
4.70908e-10
-1.19797e-17
-1.74534e-16
-1.48088e-15
-8.12891e-15
-3.15319e-14
-9.18385e-14
-1.25861e-13
-2.91138e-13
-8.05235e-13
-1.92494e-12
-3.9064e-12
-6.87561e-12
-1.08538e-11
-1.60144e-11
-2.3654e-11
-3.78358e-11
-6.48792e-11
-1.06808e-10
-1.54831e-10
-1.89324e-10
-1.9135e-10
-1.58891e-10
-1.09791e-10
-6.52963e-11
-3.40558e-11
-1.42248e-11
-3.33736e-12
2.18889e-12
3.41662e-12
4.18307e-12
5.11032e-12
5.74468e-12
6.0694e-12
6.30937e-12
6.58595e-12
7.44243e-12
1.12063e-11
2.32083e-11
4.99806e-11
9.46201e-11
1.63666e-10
2.53517e-10
4.00937e-10
8.59381e-10
5.88847e-10
-8.48627e-18
-1.22439e-16
-9.9285e-16
-5.13715e-15
-1.86334e-14
-5.01562e-14
-7.35547e-14
-1.94682e-13
-5.40701e-13
-1.25977e-12
-2.49037e-12
-4.28609e-12
-6.68207e-12
-1.00094e-11
-1.57221e-11
-2.71871e-11
-4.81238e-11
-7.76042e-11
-1.06793e-10
-1.21491e-10
-1.12115e-10
-8.31246e-11
-4.99008e-11
-2.49713e-11
-1.0371e-11
-2.77225e-12
2.88335e-13
9.12611e-13
1.19488e-12
1.49773e-12
1.70093e-12
1.82785e-12
1.91981e-12
2.00185e-12
2.14863e-12
2.90651e-12
6.72192e-12
1.96408e-11
4.98466e-11
1.02285e-10
1.84825e-10
3.14746e-10
4.65446e-10
1.34015e-09
6.41374e-10
-5.68435e-18
-8.0308e-17
-6.16941e-16
-2.99435e-15
-1.01244e-14
-2.54266e-14
-4.24877e-14
-1.23413e-13
-3.36178e-13
-7.59808e-13
-1.46197e-12
-2.46634e-12
-3.83874e-12
-5.98063e-12
-1.01668e-11
-1.86607e-11
-3.30506e-11
-5.11922e-11
-6.6224e-11
-6.97344e-11
-5.85511e-11
-3.85564e-11
-1.98265e-11
-8.03651e-12
-2.39237e-12
-2.09378e-13
1.91039e-13
2.86046e-13
3.54838e-13
4.18745e-13
4.623e-13
4.94059e-13
5.20416e-13
5.51403e-13
6.52436e-13
1.29949e-12
4.80824e-12
1.77323e-11
4.98569e-11
1.08961e-10
2.08162e-10
4.10263e-10
4.60808e-10
1.07215e-09
2.27099e-09
-3.57591e-18
-4.88008e-17
-3.5212e-16
-1.59502e-15
-5.02978e-15
-1.20723e-14
-2.40217e-14
-7.26548e-14
-1.9132e-13
-4.18422e-13
-7.83711e-13
-1.30323e-12
-2.06152e-12
-3.42546e-12
-6.29347e-12
-1.18784e-11
-2.05005e-11
-3.0122e-11
-3.64701e-11
-3.55479e-11
-2.72435e-11
-1.60029e-11
-7.02923e-12
-2.22457e-12
-3.91643e-13
2.06141e-14
5.63466e-14
6.96231e-14
8.40663e-14
9.68304e-14
1.05559e-13
1.138e-13
1.22012e-13
1.3768e-13
2.16116e-13
7.57379e-13
3.94252e-12
1.68555e-11
5.11868e-11
1.19636e-10
2.43189e-10
5.14747e-10
5.74056e-10
6.7311e-10
1.71371e-08
-2.09041e-18
-2.71589e-17
-1.82523e-16
-7.68193e-16
-2.27569e-15
-5.43968e-15
-1.29489e-14
-3.89628e-14
-9.84451e-14
-2.08044e-13
-3.79968e-13
-6.29648e-13
-1.0367e-12
-1.8641e-12
-3.61988e-12
-6.79848e-12
-1.12274e-11
-1.55517e-11
-1.76338e-11
-1.60115e-11
)
;

boundaryField
{
    leftWall
    {
        type            zeroGradient;
    }
    rightWall
    {
        type            zeroGradient;
    }
    lowerWall
    {
        type            zeroGradient;
    }
    atmosphere
    {
        type            inletOutlet;
        inletValue      nonuniform 0();
        value           nonuniform 0();
    }
    defaultFaces
    {
        type            empty;
    }
    procBoundary0to1
    {
        type            processor;
        value           nonuniform List<scalar> 
44
(
1
0.999999
0.99822
0.999285
0.999997
0.999999
1
1
1
1
1
1
1
1
1
1
1
1
1
1
1
1
1
1.00001
0.999965
0.997433
0.132975
0.000819079
6.71967e-05
3.9259e-06
2.33876e-07
8.91339e-09
8.70289e-10
7.83901e-10
8.15495e-10
8.40088e-10
5.96739e-10
4.65252e-10
5.91763e-10
1.70966e-09
5.97262e-10
6.10704e-10
9.32984e-10
8.99256e-09
)
;
    }
    procBoundary0to2
    {
        type            processor;
        value           nonuniform List<scalar> 
46
(
-1.13438e-11
-6.06389e-12
-2.32994e-12
-5.79024e-13
-4.70682e-14
7.47837e-15
1.12773e-14
1.38323e-14
1.62714e-14
1.85605e-14
2.05783e-14
2.2711e-14
2.57515e-14
3.5971e-14
1.00218e-13
5.70761e-13
3.55642e-12
1.6641e-11
5.3977e-11
1.33489e-10
2.83428e-10
5.78581e-10
1.01173e-09
6.46837e-10
1.50823e-08
-1.11856e-18
-1.36386e-17
-8.46926e-17
-3.30521e-16
-9.36977e-16
-2.34838e-15
-6.4299e-15
-1.86786e-14
-4.51375e-14
-9.21081e-14
-1.64857e-13
-2.77116e-13
-4.85814e-13
-9.3869e-13
-1.86132e-12
-3.39143e-12
-5.30956e-12
-6.92842e-12
-7.39634e-12
-1.13438e-11
-6.33552e-12
)
;
    }
}


// ************************************************************************* //
