/*--------------------------------*- C++ -*----------------------------------*\
| =========                 |                                                 |
| \\      /  F ield         | OpenFOAM: The Open Source CFD Toolbox           |
|  \\    /   O peration     | Version:  5.0                                   |
|   \\  /    A nd           | Web:      www.OpenFOAM.org                      |
|    \\/     M anipulation  |                                                 |
\*---------------------------------------------------------------------------*/
FoamFile
{
    version     2.0;
    format      ascii;
    class       surfaceScalarField;
    location    "0.35";
    object      alphaPhi10;
}
// * * * * * * * * * * * * * * * * * * * * * * * * * * * * * * * * * * * * * //

dimensions      [0 3 -1 0 0 0 0];

internalField   nonuniform List<scalar> 
3781
(
-3.35494e-06
3.35494e-06
-4.05055e-06
6.95615e-07
-2.73925e-06
-1.3113e-06
-5.75596e-07
-2.16365e-06
1.86193e-06
-2.43752e-06
4.3125e-06
-2.45058e-06
6.6454e-06
-2.33289e-06
8.82056e-06
-2.17516e-06
1.08418e-05
-2.02124e-06
1.2731e-05
-1.88916e-06
1.45159e-05
-1.78493e-06
1.62242e-05
-1.70828e-06
1.788e-05
-1.65588e-06
1.95034e-05
-1.62331e-06
2.11094e-05
-1.60604e-06
2.27092e-05
-1.59985e-06
2.43102e-05
-1.60101e-06
2.59165e-05
-1.60621e-06
2.7529e-05
-1.61256e-06
2.91465e-05
-1.61744e-06
3.07648e-05
-1.61835e-06
3.23776e-05
-1.61282e-06
3.39758e-05
-1.59818e-06
3.55473e-05
-1.57146e-06
3.70765e-05
-1.52919e-06
3.85437e-05
-1.4672e-06
3.9924e-05
-1.38033e-06
4.11861e-05
-1.26208e-06
4.22899e-05
-1.10387e-06
4.31833e-05
-8.93317e-07
4.37938e-05
-6.10541e-07
4.40108e-05
-2.16967e-07
4.36559e-05
3.54906e-07
4.25404e-05
1.11541e-06
4.0497e-05
2.04348e-06
3.73551e-05
3.14184e-06
3.29663e-05
4.38883e-06
2.72536e-05
5.71265e-06
2.02899e-05
6.96373e-06
1.23621e-05
7.92786e-06
3.9718e-06
8.39026e-06
-4.16841e-06
8.38109e-06
-1.07899e-05
7.40739e-06
4.26186e-06
-1.60067e-06
4.9556e-06
-1.11331e-06
2.08258e-07
2.90267e-07
-2.71488e-06
2.18948e-06
-4.06287e-06
4.32017e-06
-4.56822e-06
6.48827e-06
-4.61867e-06
8.6086e-06
-4.45322e-06
1.06453e-05
-4.21183e-06
1.25924e-05
-3.96841e-06
1.446e-05
-3.75669e-06
1.62637e-05
-3.58869e-06
1.80204e-05
-3.46498e-06
1.97452e-05
-3.38064e-06
2.14505e-05
-3.32858e-06
2.31458e-05
-3.30135e-06
2.48378e-05
-3.2919e-06
2.65307e-05
-3.29387e-06
2.8226e-05
-3.30158e-06
2.99234e-05
-3.30996e-06
3.16203e-05
-3.3143e-06
3.3312e-05
-3.31002e-06
3.49916e-05
-3.29246e-06
3.665e-05
-3.25655e-06
3.82751e-05
-3.19658e-06
3.98517e-05
-3.10582e-06
4.13607e-05
-2.97622e-06
4.27784e-05
-2.79794e-06
4.40751e-05
-2.55878e-06
4.52144e-05
-2.24326e-06
4.61525e-05
-1.83136e-06
4.68388e-05
-1.29688e-06
4.7228e-05
-6.06103e-07
4.72896e-05
2.93274e-07
4.69481e-05
1.45687e-06
4.60627e-05
2.92892e-06
4.44589e-05
4.74563e-06
4.19261e-05
6.92168e-06
3.82251e-05
9.41364e-06
3.31249e-05
1.20639e-05
2.65016e-05
1.45512e-05
1.85055e-05
1.63863e-05
9.77668e-06
1.71099e-05
1.6622e-06
1.59028e-05
1.0108e-05
-6.20997e-08
5.0177e-06
8.49485e-07
-7.03326e-07
2.26794e-06
-4.13333e-06
4.03684e-06
-5.83176e-06
5.96322e-06
-6.4946e-06
7.93366e-06
-6.58912e-06
9.88915e-06
-6.4087e-06
1.18039e-05
-6.12659e-06
1.36713e-05
-5.8358e-06
1.54949e-05
-5.58033e-06
1.72828e-05
-5.37657e-06
1.90441e-05
-5.22625e-06
2.07873e-05
-5.12389e-06
2.25198e-05
-5.06106e-06
2.42471e-05
-5.0286e-06
2.59728e-05
-5.01768e-06
2.76991e-05
-5.02017e-06
2.94262e-05
-5.02868e-06
3.11527e-05
-5.03644e-06
3.28754e-05
-5.03702e-06
3.45895e-05
-5.02404e-06
3.62878e-05
-4.99085e-06
3.79615e-05
-4.93017e-06
3.95986e-05
-4.83371e-06
4.11846e-05
-4.69177e-06
4.27011e-05
-4.49273e-06
4.41256e-05
-4.2225e-06
4.54307e-05
-3.8639e-06
4.65832e-05
-3.3957e-06
4.75436e-05
-2.79174e-06
4.82664e-05
-2.01972e-06
4.87012e-05
-1.04086e-06
4.88001e-05
1.94333e-07
4.85101e-05
1.74689e-06
4.77627e-05
3.67627e-06
4.64745e-05
6.03387e-06
4.45467e-05
8.84949e-06
4.18593e-05
1.21011e-05
3.82622e-05
1.5661e-05
3.35895e-05
1.92238e-05
2.77452e-05
2.22306e-05
2.09738e-05
2.38814e-05
1.39584e-05
2.29185e-05
1.70434e-05
8.9129e-07
4.12642e-06
2.08549e-06
-1.89753e-06
3.63412e-06
-5.68196e-06
5.37372e-06
-7.57136e-06
7.1926e-06
-8.31348e-06
9.0332e-06
-8.42971e-06
1.08688e-05
-8.24431e-06
1.26881e-05
-7.94593e-06
1.44881e-05
-7.63572e-06
1.62698e-05
-7.36205e-06
1.80366e-05
-7.1434e-06
1.97926e-05
-6.98221e-06
2.15416e-05
-6.87291e-06
2.32871e-05
-6.80652e-06
2.50315e-05
-6.77302e-06
2.67763e-05
-6.76254e-06
2.8522e-05
-6.76583e-06
3.02676e-05
-6.7743e-06
3.2011e-05
-6.77985e-06
3.37486e-05
-6.77465e-06
3.54754e-05
-6.75075e-06
3.71843e-05
-6.69975e-06
3.88664e-05
-6.61233e-06
4.05106e-05
-6.47785e-06
4.21026e-05
-6.28384e-06
4.36253e-05
-6.01544e-06
4.50576e-05
-5.65477e-06
4.63739e-05
-5.1802e-06
4.75438e-05
-4.56561e-06
4.85316e-05
-3.77954e-06
4.92965e-05
-2.78456e-06
4.97928e-05
-1.53718e-06
4.99732e-05
1.3913e-08
4.97907e-05
1.92937e-06
4.91966e-05
4.27035e-06
4.81406e-05
7.08988e-06
4.65712e-05
1.04189e-05
4.44315e-05
1.42408e-05
4.16461e-05
1.84464e-05
3.8104e-05
2.27659e-05
3.36614e-05
2.66732e-05
2.82507e-05
2.92921e-05
2.19722e-05
2.91971e-05
2.41628e-05
1.23983e-06
2.88659e-06
2.81138e-06
-3.46908e-06
4.54176e-06
-7.41234e-06
6.31352e-06
-9.34312e-06
8.08323e-06
-1.00832e-05
9.8435e-06
-1.019e-05
1.15972e-05
-9.99798e-06
1.33474e-05
-9.6962e-06
1.50962e-05
-9.38445e-06
1.68444e-05
-9.11031e-06
1.8593e-05
-8.89202e-06
2.03428e-05
-8.73196e-06
2.20944e-05
-8.62455e-06
2.38485e-05
-8.56062e-06
2.56053e-05
-8.5298e-06
2.73645e-05
-8.5217e-06
2.9125e-05
-8.52639e-06
3.08852e-05
-8.53445e-06
3.26422e-05
-8.53683e-06
3.43921e-05
-8.52455e-06
3.61297e-05
-8.48834e-06
3.78481e-05
-8.41823e-06
3.95389e-05
-8.3031e-06
4.11912e-05
-8.13019e-06
4.27919e-05
-7.88452e-06
4.43248e-05
-7.54831e-06
4.57703e-05
-7.10027e-06
4.7105e-05
-6.51489e-06
4.83011e-05
-5.76174e-06
4.93264e-05
-4.80485e-06
5.01444e-05
-3.6025e-06
5.07146e-05
-2.10739e-06
5.09948e-05
-2.66263e-07
5.0944e-05
1.98015e-06
5.05232e-05
4.69115e-06
4.96964e-05
7.9167e-06
4.84301e-05
1.16852e-05
4.66888e-05
1.5982e-05
4.44221e-05
2.07131e-05
4.15408e-05
2.56471e-05
3.7891e-05
3.0323e-05
3.32636e-05
3.39194e-05
2.74145e-05
3.50462e-05
3.15907e-05
1.39502e-06
1.49157e-06
3.2557e-06
-5.32977e-06
5.13752e-06
-9.29416e-06
6.94471e-06
-1.11503e-05
8.6866e-06
-1.18251e-05
1.03941e-05
-1.18974e-05
1.20918e-05
-1.16957e-05
1.37938e-05
-1.13982e-05
1.5506e-05
-1.10967e-05
1.72301e-05
-1.08344e-05
1.89655e-05
-1.06274e-05
2.07111e-05
-1.04776e-05
2.24655e-05
-1.03789e-05
2.42273e-05
-1.03224e-05
2.59949e-05
-1.02974e-05
2.77666e-05
-1.02935e-05
2.95405e-05
-1.03003e-05
3.1314e-05
-1.03079e-05
3.30837e-05
-1.03065e-05
3.48455e-05
-1.02864e-05
3.65943e-05
-1.02371e-05
3.83233e-05
-1.01473e-05
4.00244e-05
-1.00043e-05
4.16877e-05
-9.79344e-06
4.33008e-05
-9.49757e-06
4.48488e-05
-9.09631e-06
4.63138e-05
-8.56535e-06
4.76747e-05
-7.87576e-06
4.89063e-05
-6.99332e-06
4.99796e-05
-5.87817e-06
5.0862e-05
-4.48493e-06
5.1518e-05
-2.76333e-06
5.19105e-05
-6.58798e-07
5.2004e-05
1.88663e-06
5.17658e-05
4.9294e-06
5.11667e-05
8.51582e-06
5.01798e-05
1.26721e-05
4.87748e-05
1.7387e-05
4.69041e-05
2.25838e-05
4.44783e-05
2.80729e-05
4.13294e-05
3.3472e-05
3.71731e-05
3.80757e-05
3.15624e-05
4.06569e-05
3.93204e-05
1.53327e-06
-4.17015e-08
3.56984e-06
-7.36634e-06
5.53216e-06
-1.12565e-05
7.34482e-06
-1.2963e-05
9.05577e-06
-1.3536e-05
1.07206e-05
-1.35623e-05
1.23767e-05
-1.33519e-05
1.40438e-05
-1.30653e-05
1.57301e-05
-1.27829e-05
1.74372e-05
-1.25415e-05
1.91639e-05
-1.23542e-05
2.09077e-05
-1.22213e-05
2.26656e-05
-1.21369e-05
2.44349e-05
-1.20916e-05
2.62127e-05
-1.20752e-05
2.79963e-05
-1.2077e-05
2.97828e-05
-1.20867e-05
3.15689e-05
-1.2094e-05
3.33511e-05
-1.20887e-05
3.5125e-05
-1.20603e-05
3.68856e-05
-1.19976e-05
3.86264e-05
-1.18881e-05
4.03398e-05
-1.17177e-05
4.20167e-05
-1.14703e-05
4.36457e-05
-1.11266e-05
4.52135e-05
-1.06641e-05
4.6704e-05
-1.00558e-05
4.80982e-05
-9.26994e-06
4.93736e-05
-8.2688e-06
5.05046e-05
-7.00913e-06
5.1462e-05
-5.44237e-06
5.22146e-05
-3.51585e-06
5.273e-05
-1.17419e-06
5.29773e-05
1.63932e-06
5.29284e-05
4.97824e-06
5.25584e-05
8.88585e-06
5.18431e-05
1.33874e-05
5.07527e-05
1.84775e-05
4.92376e-05
2.40989e-05
4.72033e-05
3.01073e-05
4.44676e-05
3.62076e-05
4.06984e-05
4.18449e-05
3.53188e-05
4.60365e-05
4.72161e-05
1.68e-06
-1.7217e-06
3.81336e-06
-9.4997e-06
5.78881e-06
-1.32319e-05
7.57075e-06
-1.47449e-05
9.23819e-06
-1.52035e-05
1.08608e-05
-1.51849e-05
1.24811e-05
-1.49721e-05
1.41203e-05
-1.47044e-05
1.57865e-05
-1.44491e-05
1.7481e-05
-1.4236e-05
1.92017e-05
-1.40748e-05
2.09449e-05
-1.39646e-05
2.27068e-05
-1.38987e-05
2.44832e-05
-1.38681e-05
2.62704e-05
-1.38625e-05
2.80648e-05
-1.38715e-05
2.98629e-05
-1.38848e-05
3.1661e-05
-1.38921e-05
3.34552e-05
-1.38829e-05
3.52411e-05
-1.38463e-05
3.70137e-05
-1.37702e-05
3.8767e-05
-1.36414e-05
4.04941e-05
-1.34448e-05
4.21865e-05
-1.31627e-05
4.38342e-05
-1.27743e-05
4.54252e-05
-1.22552e-05
4.69457e-05
-1.15763e-05
4.83789e-05
-1.07031e-05
4.97052e-05
-9.59511e-06
5.09018e-05
-8.2058e-06
5.19432e-05
-6.48374e-06
5.28016e-05
-4.37423e-06
5.34488e-05
-1.82136e-06
5.38579e-05
1.23019e-06
5.40049e-05
4.83123e-06
5.38683e-05
9.02244e-06
5.34268e-05
1.38289e-05
5.26527e-05
1.92516e-05
5.14978e-05
2.52538e-05
4.98687e-05
3.17364e-05
4.75819e-05
3.84944e-05
4.42858e-05
4.51411e-05
3.9328e-05
5.09942e-05
5.49661e-05
1.83127e-06
-3.55297e-06
4.00388e-06
-1.16723e-05
5.9396e-06
-1.51677e-05
7.66102e-06
-1.64663e-05
9.27248e-06
-1.68149e-05
1.08499e-05
-1.67624e-05
1.24355e-05
-1.65577e-05
1.4049e-05
-1.6318e-05
1.56974e-05
-1.60976e-05
1.73809e-05
-1.59195e-05
1.90962e-05
-1.57901e-05
2.08387e-05
-1.57071e-05
2.26035e-05
-1.56636e-05
2.43858e-05
-1.56504e-05
2.6181e-05
-1.56576e-05
2.79847e-05
-1.56752e-05
2.9793e-05
-1.5693e-05
3.16016e-05
-1.57008e-05
3.34066e-05
-1.56879e-05
3.52037e-05
-1.56433e-05
3.69878e-05
-1.55544e-05
3.87536e-05
-1.54072e-05
4.04946e-05
-1.51858e-05
4.22032e-05
-1.48713e-05
4.38708e-05
-1.44418e-05
4.54871e-05
-1.38715e-05
4.70401e-05
-1.31294e-05
4.8516e-05
-1.21789e-05
4.98978e-05
-1.0977e-05
5.11661e-05
-9.47402e-06
5.22981e-05
-7.61577e-06
5.32694e-05
-5.34558e-06
5.40553e-05
-2.60723e-06
5.46326e-05
6.52916e-07
5.49811e-05
4.48272e-06
5.50835e-05
8.92007e-06
5.49232e-05
1.39892e-05
5.44784e-05
1.96964e-05
5.37104e-05
2.60218e-05
5.25404e-05
3.29063e-05
5.08083e-05
4.02265e-05
4.81911e-05
4.77582e-05
4.40493e-05
5.5136e-05
6.18866e-05
1.9782e-06
-5.53116e-06
4.14331e-06
-1.38374e-05
6.00127e-06
-1.70256e-05
7.64246e-06
-1.81075e-05
9.18972e-06
-1.83622e-05
1.07191e-05
-1.82917e-05
1.22692e-05
-1.81079e-05
1.3857e-05
-1.79058e-05
1.54874e-05
-1.77279e-05
1.7159e-05
-1.75911e-05
1.88675e-05
-1.74987e-05
2.06076e-05
-1.74472e-05
2.23734e-05
-1.74294e-05
2.41593e-05
-1.74362e-05
2.596e-05
-1.74583e-05
2.77706e-05
-1.74859e-05
2.95867e-05
-1.7509e-05
3.14038e-05
-1.75179e-05
3.32177e-05
-1.75019e-05
3.50241e-05
-1.74497e-05
3.68184e-05
-1.73486e-05
3.85953e-05
-1.71842e-05
4.03492e-05
-1.69396e-05
4.20733e-05
-1.65955e-05
4.37603e-05
-1.61288e-05
4.54016e-05
-1.55127e-05
4.69875e-05
-1.47153e-05
4.8507e-05
-1.36984e-05
4.99465e-05
-1.24165e-05
5.12894e-05
-1.08169e-05
5.25161e-05
-8.84244e-06
5.36048e-05
-6.43436e-06
5.45338e-05
-3.53615e-06
5.5283e-05
-9.63578e-08
5.58365e-05
3.92926e-06
5.61818e-05
8.57474e-06
5.63095e-05
1.38616e-05
5.62083e-05
1.97975e-05
5.58572e-05
2.6373e-05
5.52081e-05
3.35554e-05
5.41551e-05
4.12795e-05
5.2471e-05
4.94423e-05
4.96719e-05
5.79352e-05
6.68967e-05
2.14962e-06
-7.68078e-06
4.30534e-06
-1.59931e-05
6.0919e-06
-1.88122e-05
7.67053e-06
-1.96861e-05
9.17664e-06
-1.98683e-05
1.0683e-05
-1.9798e-05
1.22236e-05
-1.96485e-05
1.3812e-05
-1.94942e-05
1.54511e-05
-1.9367e-05
1.71381e-05
-1.9278e-05
1.88676e-05
-1.92282e-05
2.06332e-05
-1.92128e-05
2.24283e-05
-1.92244e-05
2.42464e-05
-1.92544e-05
2.60817e-05
-1.92936e-05
2.79286e-05
-1.93327e-05
2.9782e-05
-1.93624e-05
3.16373e-05
-1.93731e-05
3.349e-05
-1.93546e-05
3.53357e-05
-1.92954e-05
3.71699e-05
-1.91828e-05
3.89878e-05
-1.9002e-05
4.07839e-05
-1.87358e-05
4.25525e-05
-1.83641e-05
4.42872e-05
-1.78634e-05
4.5981e-05
-1.72065e-05
4.76267e-05
-1.63611e-05
4.92163e-05
-1.5288e-05
5.07395e-05
-1.39397e-05
5.2183e-05
-1.22604e-05
5.35296e-05
-1.01891e-05
5.47598e-05
-7.66456e-06
5.58536e-05
-4.62987e-06
5.67934e-05
-1.03623e-06
5.7567e-05
3.15566e-06
5.81677e-05
7.97404e-06
5.85947e-05
1.34346e-05
5.88506e-05
1.95415e-05
5.89376e-05
2.6286e-05
5.88491e-05
3.36438e-05
5.85574e-05
4.15713e-05
5.79906e-05
5.00091e-05
5.69948e-05
5.8931e-05
6.85745e-05
2.28461e-06
-9.96539e-06
4.37572e-06
-1.80842e-05
6.06016e-06
-2.04966e-05
7.55963e-06
-2.11856e-05
9.01159e-06
-2.13203e-05
1.04814e-05
-2.12678e-05
1.19975e-05
-2.11646e-05
1.35702e-05
-2.1067e-05
1.52005e-05
-2.09973e-05
1.68846e-05
-2.09621e-05
1.86162e-05
-2.09598e-05
2.03881e-05
-2.09848e-05
2.21931e-05
-2.10294e-05
2.40241e-05
-2.10854e-05
2.58745e-05
-2.1144e-05
2.77382e-05
-2.11965e-05
2.96098e-05
-2.1234e-05
3.14843e-05
-2.12476e-05
3.33569e-05
-2.12272e-05
3.52233e-05
-2.11618e-05
3.7079e-05
-2.10385e-05
3.89195e-05
-2.08425e-05
4.07398e-05
-2.05561e-05
4.25348e-05
-2.0159e-05
4.42989e-05
-1.96276e-05
4.60271e-05
-1.89347e-05
4.77146e-05
-1.80486e-05
4.93572e-05
-1.69306e-05
5.0949e-05
-1.55314e-05
5.24802e-05
-1.37916e-05
5.39368e-05
-1.16457e-05
5.53009e-05
-9.02858e-06
5.65536e-05
-5.88263e-06
5.76797e-05
-2.16228e-06
5.867e-05
2.16529e-06
5.95241e-05
7.11995e-06
6.02504e-05
1.27084e-05
6.08663e-05
1.89256e-05
6.13976e-05
2.57548e-05
6.1878e-05
3.31634e-05
6.23505e-05
4.10987e-05
6.28766e-05
4.94829e-05
6.35797e-05
5.8228e-05
6.73043e-05
2.38924e-06
-1.23546e-05
4.38871e-06
-2.00837e-05
5.97057e-06
-2.20785e-05
7.39784e-06
-2.26129e-05
8.80058e-06
-2.2723e-05
1.02351e-05
-2.27023e-05
1.17251e-05
-2.26546e-05
1.32787e-05
-2.26205e-05
1.48957e-05
-2.26143e-05
1.65717e-05
-2.26381e-05
1.82999e-05
-2.2688e-05
2.00727e-05
-2.27575e-05
2.18822e-05
-2.28389e-05
2.37208e-05
-2.2924e-05
2.55814e-05
-2.30046e-05
2.74573e-05
-2.30724e-05
2.93425e-05
-2.31192e-05
3.12316e-05
-2.31367e-05
3.31199e-05
-2.31155e-05
3.50027e-05
-2.30446e-05
3.68757e-05
-2.29115e-05
3.87344e-05
-2.27012e-05
4.05743e-05
-2.2396e-05
4.23905e-05
-2.19753e-05
4.41783e-05
-2.14154e-05
4.59337e-05
-2.06901e-05
4.7655e-05
-1.97698e-05
4.93421e-05
-1.86177e-05
5.09946e-05
-1.71839e-05
5.26075e-05
-1.54045e-05
5.41696e-05
-1.32078e-05
5.56642e-05
-1.05232e-05
5.7073e-05
-7.29143e-06
5.83813e-05
-3.4705e-06
5.95826e-05
9.63939e-07
6.06818e-05
6.02072e-06
6.16958e-05
1.16944e-05
6.26545e-05
1.79669e-05
6.36024e-05
2.48069e-05
6.46003e-05
3.21656e-05
6.57309e-05
3.99681e-05
6.71117e-05
4.81021e-05
6.89283e-05
5.64114e-05
6.47141e-05
2.45424e-06
-1.48089e-05
4.35028e-06
-2.19798e-05
5.8448e-06
-2.3573e-05
7.21508e-06
-2.39832e-05
8.57655e-06
-2.40845e-05
9.97742e-06
-2.41032e-05
1.14388e-05
-2.4116e-05
1.29683e-05
-2.41501e-05
1.4566e-05
-2.4212e-05
1.62274e-05
-2.42994e-05
1.79456e-05
-2.44062e-05
1.97126e-05
-2.45245e-05
2.15202e-05
-2.46465e-05
2.33602e-05
-2.47641e-05
2.5225e-05
-2.48694e-05
2.71073e-05
-2.49547e-05
2.90006e-05
-2.50125e-05
3.08991e-05
-2.50352e-05
3.27976e-05
-2.5014e-05
3.46916e-05
-2.49385e-05
3.65764e-05
-2.47963e-05
3.84478e-05
-2.45726e-05
4.03013e-05
-2.42495e-05
4.21322e-05
-2.38062e-05
4.39357e-05
-2.32189e-05
4.57085e-05
-2.24629e-05
4.74513e-05
-2.15126e-05
4.91696e-05
-2.0336e-05
5.08697e-05
-1.8884e-05
5.25526e-05
-1.70874e-05
5.42105e-05
-1.48657e-05
5.58274e-05
-1.21401e-05
5.73838e-05
-8.84789e-06
5.88643e-05
-4.951e-06
6.02638e-05
-4.3559e-07
6.15912e-05
4.69335e-06
6.287e-05
1.04156e-05
6.41395e-05
1.66974e-05
6.54557e-05
2.34907e-05
6.68928e-05
3.07285e-05
6.8546e-05
3.83148e-05
7.05357e-05
4.61124e-05
7.30161e-05
5.3931e-05
6.15342e-05
2.47218e-06
-1.72811e-05
4.27732e-06
-2.37849e-05
5.71686e-06
-2.50125e-05
7.05169e-06
-2.5318e-05
8.38025e-06
-2.5413e-05
9.74723e-06
-2.54702e-05
1.11752e-05
-2.5544e-05
1.26739e-05
-2.56487e-05
1.42445e-05
-2.57826e-05
1.58833e-05
-2.59382e-05
1.75835e-05
-2.61064e-05
1.9337e-05
-2.6278e-05
2.11352e-05
-2.64447e-05
2.29695e-05
-2.65984e-05
2.48316e-05
-2.67315e-05
2.67137e-05
-2.68367e-05
2.86086e-05
-2.69074e-05
3.05099e-05
-2.69366e-05
3.24124e-05
-2.69164e-05
3.43109e-05
-2.68371e-05
3.6201e-05
-2.66864e-05
3.80782e-05
-2.64498e-05
3.99382e-05
-2.61096e-05
4.1776e-05
-2.5644e-05
4.3586e-05
-2.50289e-05
4.5364e-05
-2.42409e-05
4.71126e-05
-2.32612e-05
4.88436e-05
-2.2067e-05
5.05721e-05
-2.06125e-05
5.2307e-05
-1.88223e-05
5.40448e-05
-1.66035e-05
5.57696e-05
-1.3865e-05
5.74594e-05
-1.05376e-05
5.90958e-05
-6.58738e-06
6.06734e-05
-2.0132e-06
6.22036e-05
3.16309e-06
6.37149e-05
8.90433e-06
6.52524e-05
1.51599e-05
6.68778e-05
2.18653e-05
6.86691e-05
2.89372e-05
7.07191e-05
3.62648e-05
7.31326e-05
4.3699e-05
7.60238e-05
5.10398e-05
5.80383e-05
2.44106e-06
-1.97221e-05
4.20274e-06
-2.55466e-05
5.63649e-06
-2.64463e-05
6.95951e-06
-2.6641e-05
8.25992e-06
-2.67134e-05
9.5883e-06
-2.67985e-05
1.09745e-05
-2.69302e-05
1.24328e-05
-2.71071e-05
1.3967e-05
-2.73167e-05
1.55739e-05
-2.75452e-05
1.72472e-05
-2.77797e-05
1.89785e-05
-2.80093e-05
2.07589e-05
-2.8225e-05
2.25794e-05
-2.84188e-05
2.44311e-05
-2.85831e-05
2.63053e-05
-2.8711e-05
2.81942e-05
-2.87962e-05
3.00909e-05
-2.88333e-05
3.19896e-05
-2.88151e-05
3.38851e-05
-2.87326e-05
3.57725e-05
-2.85738e-05
3.76475e-05
-2.83247e-05
3.95058e-05
-2.79678e-05
4.1342e-05
-2.74802e-05
4.31487e-05
-2.68355e-05
4.49187e-05
-2.60109e-05
4.66544e-05
-2.49968e-05
4.83749e-05
-2.37875e-05
5.01069e-05
-2.23444e-05
5.18691e-05
-2.05844e-05
5.3664e-05
-1.83984e-05
5.54755e-05
-1.56765e-05
5.72771e-05
-1.23392e-05
5.90458e-05
-8.35606e-06
6.07741e-05
-3.74151e-06
6.24748e-05
1.46246e-06
6.41793e-05
7.19978e-06
6.59357e-05
1.34035e-05
6.78073e-05
1.99938e-05
6.98698e-05
2.68747e-05
7.22076e-05
3.39269e-05
7.49044e-05
4.10022e-05
7.80361e-05
4.7908e-05
5.44106e-05
2.37239e-06
-2.20945e-05
4.18186e-06
-2.7356e-05
5.67057e-06
-2.7935e-05
6.99966e-06
-2.797e-05
8.26744e-06
-2.79812e-05
9.54528e-06
-2.80763e-05
1.08769e-05
-2.82617e-05
1.22831e-05
-2.85132e-05
1.37701e-05
-2.88035e-05
1.53354e-05
-2.91103e-05
1.69724e-05
-2.94164e-05
1.86723e-05
-2.9709e-05
2.04258e-05
-2.99783e-05
2.22235e-05
-3.02164e-05
2.40561e-05
-3.04154e-05
2.59138e-05
-3.05685e-05
2.7788e-05
-3.06702e-05
2.96713e-05
-3.07162e-05
3.15574e-05
-3.07009e-05
3.34407e-05
-3.06156e-05
3.5316e-05
-3.04487e-05
3.71789e-05
-3.01872e-05
3.90258e-05
-2.98143e-05
4.08515e-05
-2.93056e-05
4.26458e-05
-2.86293e-05
4.43954e-05
-2.77602e-05
4.60987e-05
-2.66998e-05
4.77828e-05
-2.54712e-05
4.94887e-05
-2.40499e-05
5.12473e-05
-2.23428e-05
5.3069e-05
-2.02198e-05
5.49378e-05
-1.75451e-05
5.68216e-05
-1.42228e-05
5.86909e-05
-1.02253e-05
6.05353e-05
-5.58588e-06
6.2368e-05
-3.70267e-07
6.42225e-05
5.34533e-06
6.61468e-05
1.14791e-05
6.82026e-05
1.7938e-05
7.04605e-05
2.46169e-05
7.29947e-05
3.13927e-05
7.58672e-05
3.81296e-05
7.91203e-05
4.46549e-05
5.07641e-05
2.30223e-06
-2.43967e-05
4.29579e-06
-2.93492e-05
5.89806e-06
-2.95368e-05
7.23324e-06
-2.93048e-05
8.44852e-06
-2.91959e-05
9.65518e-06
-2.92822e-05
1.09159e-05
-2.95214e-05
1.22576e-05
-2.98537e-05
1.36871e-05
-3.02318e-05
1.52015e-05
-3.06232e-05
1.67931e-05
-3.10065e-05
1.84525e-05
-3.13667e-05
2.01695e-05
-3.16935e-05
2.19348e-05
-3.19798e-05
2.37383e-05
-3.22168e-05
2.55694e-05
-3.23974e-05
2.74183e-05
-3.25168e-05
2.9277e-05
-3.25725e-05
3.11391e-05
-3.25604e-05
3.29986e-05
-3.24723e-05
3.48494e-05
-3.22966e-05
3.6687e-05
-3.20219e-05
3.85094e-05
-3.16336e-05
4.03132e-05
-3.11065e-05
4.20857e-05
-3.03992e-05
4.38037e-05
-2.94758e-05
4.54549e-05
-2.83483e-05
4.7078e-05
-2.7091e-05
4.87302e-05
-2.56988e-05
5.04545e-05
-2.4065e-05
5.22689e-05
-2.20329e-05
5.41587e-05
-1.94338e-05
5.6086e-05
-1.61498e-05
5.80155e-05
-1.21546e-05
5.99344e-05
-7.50471e-06
6.18572e-05
-2.2929e-06
6.38181e-05
3.3845e-06
6.58626e-05
9.43452e-06
6.80476e-05
1.57531e-05
7.04362e-05
2.22283e-05
7.30945e-05
2.87344e-05
7.60647e-05
3.51594e-05
7.93634e-05
4.13563e-05
4.7152e-05
2.29184e-06
-2.66886e-05
4.64038e-06
-3.16944e-05
6.38759e-06
-3.12806e-05
7.69434e-06
-3.06082e-05
8.81645e-06
-3.0313e-05
9.92384e-06
-3.03828e-05
1.10969e-05
-3.06862e-05
1.23637e-05
-3.11108e-05
1.37278e-05
-3.15848e-05
1.51832e-05
-3.20666e-05
1.67207e-05
-3.25309e-05
1.83293e-05
-3.29614e-05
1.99981e-05
-3.33476e-05
2.17177e-05
-3.3684e-05
2.34775e-05
-3.39604e-05
2.52658e-05
-3.41688e-05
2.70715e-05
-3.43045e-05
2.88861e-05
-3.43681e-05
3.0703e-05
-3.43571e-05
3.2516e-05
-3.4264e-05
3.4317e-05
-3.40752e-05
3.6101e-05
-3.37828e-05
3.78689e-05
-3.33776e-05
3.96155e-05
-3.28366e-05
4.13239e-05
-3.20906e-05
4.29477e-05
-3.1082e-05
4.44646e-05
-2.98455e-05
4.59966e-05
-2.85964e-05
4.76231e-05
-2.72922e-05
4.9388e-05
-2.58017e-05
5.12175e-05
-2.38478e-05
5.31074e-05
-2.13166e-05
5.50486e-05
-1.8088e-05
5.70022e-05
-1.41068e-05
5.89565e-05
-9.45831e-06
6.09285e-05
-4.26425e-06
6.29593e-05
1.35466e-06
6.5087e-05
7.30695e-06
6.73592e-05
1.34809e-05
6.98288e-05
1.97588e-05
7.25598e-05
2.60034e-05
7.55752e-05
3.2144e-05
7.88727e-05
3.80588e-05
4.35988e-05
2.4278e-06
-2.91164e-05
5.2941e-06
-3.45337e-05
7.12089e-06
-3.30793e-05
8.28881e-06
-3.17479e-05
9.23836e-06
-3.12205e-05
1.02023e-05
-3.12897e-05
1.12615e-05
-3.16753e-05
1.24323e-05
-3.22007e-05
1.37091e-05
-3.27715e-05
1.50812e-05
-3.33408e-05
1.65364e-05
-3.3882e-05
1.80617e-05
-3.43771e-05
1.96431e-05
-3.48143e-05
2.12742e-05
-3.51956e-05
2.29394e-05
-3.55015e-05
2.46246e-05
-3.57247e-05
2.63145e-05
-3.58582e-05
2.8005e-05
-3.59138e-05
2.9694e-05
-3.58907e-05
3.13903e-05
-3.57896e-05
3.30958e-05
-3.55942e-05
3.48082e-05
-3.52996e-05
3.64583e-05
-3.48356e-05
3.80401e-05
-3.41002e-05
3.95679e-05
-3.29513e-05
4.09221e-05
-3.09074e-05
4.14413e-05
-2.68193e-05
4.25391e-05
-2.32962e-05
4.42254e-05
-2.25238e-05
4.6759e-05
-2.30084e-05
4.89135e-05
-2.42773e-05
5.10681e-05
-2.33837e-05
5.32722e-05
-2.02429e-05
5.5408e-05
-1.62164e-05
5.75056e-05
-1.15456e-05
5.9569e-05
-6.32386e-06
6.16621e-05
-7.29279e-07
6.38682e-05
5.10405e-06
6.62082e-05
1.11409e-05
6.87252e-05
1.72417e-05
7.14987e-05
2.32299e-05
7.45255e-05
2.91172e-05
7.77915e-05
3.47927e-05
4.01185e-05
3.02756e-06
-3.21445e-05
6.22472e-06
-3.7524e-05
7.75758e-06
-3.40901e-05
8.52841e-06
-3.01779e-05
9.03169e-06
-2.62078e-05
9.64803e-06
-2.37752e-05
1.04114e-05
-2.24836e-05
1.13116e-05
-2.18284e-05
1.2329e-05
-2.15503e-05
1.34482e-05
-2.15281e-05
1.46479e-05
-2.16621e-05
1.59002e-05
-2.18435e-05
1.71722e-05
-2.19129e-05
1.84761e-05
-2.19889e-05
1.97327e-05
-2.1868e-05
2.08895e-05
-2.14751e-05
2.18705e-05
-2.06467e-05
2.26899e-05
-1.95561e-05
2.33185e-05
-1.82458e-05
2.372e-05
-1.67932e-05
2.37539e-05
-1.50342e-05
2.35179e-05
-1.31643e-05
2.32002e-05
-1.13756e-05
2.27859e-05
-9.94719e-06
2.14406e-05
-7.96363e-06
1.81649e-05
-1.76781e-06
1.44235e-05
-2.4431e-07
1.48403e-05
-3.5377e-08
1.74194e-05
-5.1108e-09
2.38753e-05
-5.43913e-07
3.35894e-05
-5.8545e-06
4.15457e-05
-9.28441e-06
4.66372e-05
-1.16658e-05
5.02672e-05
-1.17653e-05
5.36193e-05
-1.01351e-05
5.6839e-05
-7.22744e-06
5.96273e-05
-2.8376e-06
6.22094e-05
2.52633e-06
6.47347e-05
8.6148e-06
6.73125e-05
1.46642e-05
7.01178e-05
2.04246e-05
7.31243e-05
2.61106e-05
7.63277e-05
3.15893e-05
7.97185e-05
3.67277e-05
4.14968e-05
4.18386e-06
-1.73735e-05
4.73385e-06
-1.38314e-05
4.43863e-06
-9.4462e-06
3.50364e-06
-2.03817e-06
2.95856e-06
-6.6994e-08
2.83357e-06
-2.51506e-09
2.85251e-06
-1.0521e-10
2.94642e-06
-4.84054e-12
3.10298e-06
-1.13631e-13
3.31412e-06
3.09807e-13
3.55778e-06
1.11332e-12
3.80625e-06
3.13111e-12
4.02452e-06
5.55241e-12
4.24375e-06
6.05689e-12
4.35313e-06
4.42764e-12
4.3292e-06
3.22531e-12
4.11477e-06
2.55793e-11
3.81819e-06
1.01799e-11
3.42723e-06
4.56749e-12
2.95446e-06
3.24212e-12
2.34671e-06
2.63191e-12
1.74033e-06
2.0616e-12
1.21257e-06
1.55699e-12
9.10768e-07
1.12153e-12
1.25043e-06
2.70482e-12
2.85853e-07
1.85592e-12
4.15381e-08
5.35386e-12
6.15127e-09
9.89539e-12
9.07084e-10
1.33387e-10
5.47701e-08
2.24887e-10
1.56847e-06
2.1967e-10
6.69334e-06
1.25946e-10
1.19908e-05
6.34861e-11
1.66869e-05
2.50523e-11
2.24551e-05
8.39703e-12
3.09814e-05
1.37236e-12
4.21007e-05
-1.14625e-06
5.34547e-05
1.23591e-07
6.08731e-05
4.06982e-06
6.52775e-05
1.02633e-05
6.8645e-05
1.7049e-05
7.16916e-05
2.30641e-05
7.47991e-05
2.84822e-05
7.80617e-05
3.34647e-05
3.81236e-05
1.30836e-06
2.01424e-14
3.16459e-07
3.729e-15
3.40784e-07
2.83957e-16
6.96194e-08
1.7598e-17
2.62538e-09
2.98967e-18
1.10322e-10
7.3521e-18
5.10389e-12
7.67964e-15
2.57347e-13
5.99643e-15
6.58577e-15
1.3713e-13
-1.42225e-13
9.21808e-13
-5.44037e-13
3.58803e-12
-1.62628e-12
1.07412e-11
-3.06125e-12
1.99392e-11
-3.53921e-12
2.13653e-11
-2.73863e-12
1.53083e-11
-2.11008e-12
1.14751e-11
-1.76913e-11
1.04147e-11
-7.43953e-12
1.04518e-11
-3.52511e-12
9.42726e-12
-2.64161e-12
8.70373e-12
-2.26406e-12
7.42245e-12
-1.87335e-12
5.85595e-12
-1.49571e-12
4.4315e-12
-1.14303e-12
3.20465e-12
-8.46235e-13
2.24158e-12
-2.19641e-12
4.79388e-12
-6.89539e-12
1.24418e-11
-1.37911e-11
2.13648e-11
-1.99631e-10
1.87108e-10
-3.57934e-10
3.13397e-10
-3.49892e-10
3.04784e-10
-2.38372e-10
2.21621e-10
-1.37165e-10
1.29008e-10
-6.53195e-11
6.3287e-11
-2.86868e-11
2.70726e-11
-7.07405e-12
1.01241e-11
1.00696e-06
2.98321e-12
5.45632e-06
4.34077e-13
1.54665e-05
8.29608e-08
3.84841e-05
5.86471e-07
6.11442e-05
6.51391e-06
6.85362e-05
1.57012e-05
7.32699e-05
2.37326e-05
7.66315e-05
3.01032e-05
3.48999e-05
-5.57281e-15
9.36995e-18
-7.76948e-16
5.48614e-18
-5.312e-17
7.15364e-18
-3.88322e-18
7.6493e-18
-8.11327e-19
7.20374e-18
-2.3813e-18
2.01645e-17
-2.8634e-15
1.5008e-14
-2.49699e-15
1.08826e-14
-6.25375e-14
6.47258e-15
-4.5459e-13
1.25666e-14
-1.89759e-12
1.75163e-14
-6.05787e-12
3.96357e-13
-1.19502e-11
1.98743e-12
-1.35779e-11
4.74116e-12
-1.0305e-11
8.18636e-12
-8.17178e-12
1.15469e-11
-7.83926e-12
1.41236e-11
-8.31441e-12
1.55087e-11
-7.93034e-12
1.53128e-11
-7.74631e-12
1.37527e-11
-6.98927e-12
1.15189e-11
-5.83773e-12
9.09646e-12
-4.68956e-12
6.83236e-12
-3.61588e-12
4.92056e-12
-2.686e-12
3.43379e-12
-5.97291e-12
5.58486e-12
-1.63468e-11
1.25516e-11
-3.04791e-11
2.07286e-11
-2.93524e-10
2.5654e-11
-5.48431e-10
2.57136e-11
-5.95347e-10
2.22778e-11
-4.71294e-10
1.74714e-11
-3.07237e-10
1.25077e-11
-1.75351e-10
8.22638e-12
-9.1584e-11
4.93814e-12
-4.45991e-11
2.60588e-12
-2.08053e-11
1.0564e-12
-9.73735e-12
3.97616e-13
8.32819e-08
4.50869e-14
8.23211e-07
1.5386e-08
9.58188e-06
2.22174e-07
3.05261e-05
6.55346e-07
6.1794e-05
4.3005e-06
7.21864e-05
1.97553e-05
2.88363e-05
6.85807e-19
8.84159e-18
-7.79352e-20
9.30675e-18
-7.84642e-19
9.18001e-18
-1.3866e-18
8.43658e-18
-1.83514e-18
9.81051e-18
-6.52975e-18
3.24375e-17
-5.78444e-15
7.58197e-17
-4.77764e-15
4.94301e-16
-3.14669e-15
5.72977e-16
-6.64505e-15
5.50056e-16
-9.95845e-15
2.38279e-15
-2.40413e-13
1.71713e-13
-1.27963e-12
1.33782e-12
-3.23075e-12
4.13981e-12
-5.88927e-12
8.3042e-12
-8.76276e-12
1.27049e-11
-1.12985e-11
1.61443e-11
-1.30748e-11
1.78598e-11
-1.36086e-11
1.76812e-11
-1.28931e-11
1.60131e-11
-1.13996e-11
1.3482e-11
-9.51321e-12
1.06782e-11
-7.56863e-12
8.02661e-12
-5.78215e-12
5.77274e-12
-4.2631e-12
4.01005e-12
-7.25018e-12
4.0845e-12
-1.719e-11
6.37598e-12
-3.06959e-11
9.40022e-12
-4.188e-11
1.13722e-11
-4.69342e-11
1.15983e-11
-4.55246e-11
1.04713e-11
-3.96386e-11
8.69533e-12
-3.20019e-11
6.75087e-12
-2.45687e-11
4.92278e-12
-1.82346e-11
3.33125e-12
-1.31967e-11
2.02562e-12
-9.39661e-12
1.06006e-12
-6.57641e-12
4.8436e-13
-3.87278e-12
9.54997e-14
1.51265e-08
2.48983e-10
2.29574e-07
9.03441e-09
8.55565e-07
3.97426e-08
6.59866e-06
2.86488e-07
2.89031e-05
8.25134e-07
4.39554e-06
2.26284e-18
6.6042e-18
5.84299e-19
8.32635e-18
-7.74362e-19
5.40611e-18
-1.51531e-18
4.19718e-18
-2.54945e-18
9.74959e-18
-1.08702e-17
4.06803e-17
-3.05423e-17
9.54131e-17
-2.28469e-16
1.61885e-16
-2.94686e-16
2.47116e-16
-3.08497e-16
4.09872e-16
-1.43793e-15
8.76131e-16
-1.10492e-13
1.41579e-13
-9.12359e-13
1.11388e-12
-2.98042e-12
3.59043e-12
-6.29385e-12
7.42645e-12
-1.01238e-11
1.16304e-11
-1.35126e-11
1.50129e-11
-1.56938e-11
1.67802e-11
-1.63128e-11
1.6758e-11
-1.55229e-11
1.52826e-11
-1.37447e-11
1.29315e-11
-1.14639e-11
1.02745e-11
-9.09216e-12
7.7364e-12
-6.90829e-12
5.56496e-12
-5.06141e-12
3.85684e-12
-5.42614e-12
2.60438e-12
-8.9838e-12
1.75811e-12
-1.42927e-11
1.2718e-12
-1.89958e-11
1.09901e-12
-2.15794e-11
1.15918e-12
-2.1824e-11
1.33526e-12
-2.03517e-11
1.50436e-12
-1.80202e-11
1.57035e-12
-1.54727e-11
1.48814e-12
-1.30431e-11
1.26447e-12
-1.08413e-11
9.48464e-13
-8.85622e-12
6.16556e-13
-6.99076e-12
3.31228e-13
-4.99088e-12
7.28513e-14
2.20794e-10
5.90385e-12
9.06266e-09
3.06648e-10
4.73343e-08
1.91932e-09
3.20487e-07
1.92695e-08
1.08505e-06
7.70633e-08
3.70724e-07
9.12164e-19
3.3498e-18
9.6051e-20
4.95102e-18
-5.30556e-19
1.17705e-18
-8.0602e-19
2.30874e-18
-2.66832e-18
1.04067e-17
-1.42054e-17
4.6166e-17
-3.98856e-17
1.07157e-16
-7.76299e-17
1.79989e-16
-1.32005e-16
2.72859e-16
-2.39002e-16
4.50031e-16
-5.49907e-16
9.27098e-16
-9.47192e-14
1.02885e-13
-7.88972e-13
8.24185e-13
-2.68002e-12
2.71515e-12
-5.82342e-12
5.72449e-12
-9.56253e-12
9.11513e-12
-1.29266e-11
1.19229e-11
-1.51204e-11
1.34615e-11
-1.58016e-11
1.35453e-11
-1.50883e-11
1.24183e-11
-1.33806e-11
1.05417e-11
-1.11578e-11
8.38751e-12
-8.83389e-12
6.3153e-12
-6.69288e-12
4.53699e-12
-4.88922e-12
3.13648e-12
-3.48641e-12
2.11175e-12
-2.50327e-12
1.41933e-12
-1.95241e-12
1.00509e-12
-1.84649e-12
8.09144e-13
-2.15906e-12
7.61938e-13
-2.7817e-12
7.90065e-13
-3.53428e-12
8.28974e-13
-4.22759e-12
8.33205e-13
-4.72442e-12
7.81021e-13
-4.96477e-12
6.72659e-13
-4.95106e-12
5.2498e-13
-4.71323e-12
3.63658e-13
-4.28687e-12
2.08778e-13
-3.63647e-12
6.14891e-14
2.03469e-12
3.34327e-14
2.97806e-10
1.11009e-11
2.13234e-09
9.39835e-11
2.02301e-08
1.15156e-09
9.28772e-08
5.66251e-09
3.27626e-08
1.66655e-19
7.86578e-19
-1.58927e-19
1.35386e-18
-1.43681e-19
5.10229e-19
-4.7835e-19
2.24521e-18
-2.97164e-18
1.12683e-17
-1.65607e-17
4.98899e-17