/*--------------------------------*- C++ -*----------------------------------*\
| =========                 |                                                 |
| \\      /  F ield         | OpenFOAM: The Open Source CFD Toolbox           |
|  \\    /   O peration     | Version:  5.0                                   |
|   \\  /    A nd           | Web:      www.OpenFOAM.org                      |
|    \\/     M anipulation  |                                                 |
\*---------------------------------------------------------------------------*/
FoamFile
{
    version     2.0;
    format      ascii;
    class       volScalarField;
    location    "0.35";
    object      epsilon;
}
// * * * * * * * * * * * * * * * * * * * * * * * * * * * * * * * * * * * * * //

dimensions      [0 2 -3 0 0 0 0];

internalField   nonuniform List<scalar> 
1935
(
0.0330821
0.0895438
0.166465
0.239304
0.305714
0.361607
0.412379
0.461274
0.510834
0.563128
0.619756
0.681862
0.750159
0.824962
0.906231
0.993609
1.08646
1.18393
1.28496
1.38832
1.49264
1.59645
1.69812
1.79595
1.88811
1.97271
2.04779
2.11135
2.1614
2.19589
2.21254
2.20813
2.18695
2.15398
2.10406
2.03492
1.94622
1.83948
1.71853
1.58991
1.46008
1.31647
1.17351
1.01351
0.0488345
0.0673071
0.100921
0.132185
0.157499
0.178405
0.196752
0.213916
0.230969
0.248714
0.267738
0.288455
0.311136
0.335933
0.362888
0.391945
0.422963
0.45572
0.489927
0.525236
0.561244
0.597502
0.633526
0.668795
0.702772
0.73491
0.764677
0.791581
0.815205
0.835257
0.851633
0.864709
0.878783
0.89665
0.91897
0.947348
0.984362
1.03342
1.09819
1.18068
1.27331
1.33734
1.30584
1.09996
0.0606775
0.0753698
0.0999323
0.12138
0.139018
0.153662
0.166409
0.17821
0.189813
0.201763
0.214442
0.228108
0.242923
0.258977
0.276297
0.294856
0.314579
0.335347
0.357
0.379341
0.40214
0.425138
0.448051
0.470576
0.492406
0.513235
0.532785
0.55083
0.567237
0.582016
0.595408
0.608101
0.622034
0.6396
0.662778
0.694251
0.737668
0.797839
0.880666
0.991702
1.12922
1.26388
1.32784
1.27685
0.077696
0.0886844
0.107302
0.123276
0.136816
0.148524
0.15907
0.169061
0.178986
0.189203
0.199963
0.21143
0.223706
0.236845
0.250859
0.265728
0.281397
0.297784
0.314776
0.332233
0.349991
0.367861
0.385638
0.403103
0.420034
0.436222
0.451488
0.465714
0.478879
0.491119
0.502799
0.514672
0.528181
0.5454
0.568455
0.600073
0.643727
0.703742
0.785248
0.893317
1.02885
1.17681
1.30041
1.39367
0.0948373
0.102567
0.116432
0.128162
0.138678
0.148451
0.157816
0.167073
0.176472
0.186202
0.196396
0.207144
0.2185
0.230492
0.243122
0.256371
0.270196
0.284536
0.299302
0.314388
0.329664
0.344982
0.360177
0.375077
0.389508
0.403315
0.416374
0.428629
0.440125
0.451067
0.46189
0.473374
0.486805
0.504118
0.527403
0.559296
0.602999
0.662268
0.741301
0.844209
0.973177
1.12429
1.29019
1.50071
0.109664
0.114203
0.124273
0.13287
0.141274
0.149822
0.158596
0.167654
0.177052
0.18684
0.197054
0.207722
0.21886
0.230474
0.242559
0.255097
0.268053
0.281379
0.295006
0.308848
0.322799
0.336737
0.350526
0.364023
0.377089
0.389602
0.401477
0.412699
0.423357
0.433702
0.444212
0.455687
0.469363
0.487043
0.510815
0.543224
0.587283
0.646418
0.724355
0.824897
0.951631
1.10859
1.30931
1.61365
0.122295
0.123058
0.129875
0.136299
0.14343
0.15138
0.160018
0.169226
0.178922
0.189053
0.199583
0.210494
0.221771
0.233405
0.245386
0.257694
0.270304
0.283177
0.296259
0.309477
0.322746
0.335962
0.34901
0.36177
0.374127
0.385986
0.397289
0.408051
0.418393
0.428595
0.439165
0.450912
0.465047
0.48328
0.507704
0.540804
0.585505
0.645136
0.723388
0.82441
0.953555
1.12085
1.35407
1.73707
0.133918
0.129685
0.133484
0.138415
0.144909
0.152732
0.161563
0.17115
0.181317
0.191942
0.202942
0.214264
0.225874
0.237751
0.249879
0.262243
0.274822
0.287584
0.300487
0.313472
0.326465
0.339379
0.352116
0.364575
0.376658
0.388292
0.399441
0.41014
0.420533
0.430918
0.441817
0.454044
0.468788
0.487689
0.512845
0.546712
0.592206
0.652714
0.732189
0.835545
0.970178
1.15111
1.41698
1.87411
0.145102
0.134855
0.135764
0.139635
0.145886
0.153868
0.163077
0.17316
0.183877
0.19506
0.206595
0.218407
0.23045
0.242694
0.255122
0.267719
0.280467
0.293344
0.306314
0.319329
0.332328
0.345234
0.357964
0.370431
0.382554
0.394277
0.405581
0.416518
0.427242
0.438063
0.449503
0.462369
0.477825
0.497453
0.523345
0.557948
0.604203
0.665637
0.746584
0.852889
0.994018
1.18943
1.48745
2.02082
0.157047
0.139294
0.137393
0.140455
0.146655
0.154913
0.164555
0.175152
0.186417
0.198154
0.210229
0.222553
0.235071
0.247747
0.260563
0.273504
0.286556
0.299702
0.312912
0.326148
0.339355
0.35247
0.365418
0.378127
0.390529
0.402583
0.414285
0.425699
0.436984
0.448448
0.460603
0.474235
0.490476
0.510851
0.537415
0.572614
0.619415
0.681471
0.763469
0.872059
1.01839
1.22532
1.54922
2.15314
0.170626
0.143618
0.138937
0.141299
0.147488
0.156008
0.16604
0.177093
0.188849
0.201091
0.213672
0.226494
0.239493
0.252631
0.265886
0.279243
0.292692
0.306217
0.319796
0.333395
0.346968
0.360458
0.373802
0.386937
0.399809
0.412389
0.42469
0.436783
0.448829
0.461123
0.474153
0.48867
0.505758
0.526892
0.554004
0.589577
0.636553
0.698635
0.780701
0.889826
1.03793
1.24895
1.57983
2.18962
0.18672
0.148364
0.140838
0.142484
0.148588
0.157263
0.167568
0.178964
0.191109
0.203772
0.216796
0.230074
0.243536
0.25714
0.27086
0.284681
0.298592
0.31258
0.326627
0.340702
0.354765
0.368767
0.382652
0.396364
0.409863
0.423133
0.436203
0.449153
0.462142
0.475441
0.4895
0.505015
0.523001
0.544853
0.572389
0.60805
0.654707
0.716
0.796758
0.903976
1.04917
1.25443
1.56872
2.1158
0.205816
0.153901
0.143396
0.144213
0.150073
0.15873
0.169141
0.180727
0.193129
0.206104
0.219484
0.233155
0.247041
0.261093
0.275282
0.28959
0.304005
0.318515
0.333102
0.347739
0.362391
0.377011
0.39155
0.405959
0.420208
0.434296
0.448269
0.462221
0.476306
0.490767
0.505997
0.522618
0.541552
0.564085
0.591907
0.627348
0.673152
0.732782
0.810796
0.913653
1.05156
1.24285
1.52461
1.97951
0.228093
0.160479
0.146811
0.14661
0.152007
0.160431
0.170752
0.182359
0.194873
0.208037
0.221675
0.235664
0.249922
0.264392
0.27904
0.293843
0.308787
0.323858
0.339039
0.354305
0.36962
0.384943
0.400227
0.415429
0.430523
0.445525
0.460502
0.475569
0.490878
0.50664
0.523179
0.541019
0.560964
0.584169
0.612175
0.64711
0.691577
0.748768
0.822809
0.919366
1.04694
1.21967
1.46358
1.82972
0.253122
0.168185
0.151209
0.149755
0.15443
0.162385
0.172411
0.183863
0.196339
0.209568
0.223361
0.237588
0.252156
0.267004
0.282089
0.297383
0.312867
0.328525
0.344339
0.360282
0.376321
0.392414
0.408517
0.424588
0.440604
0.456591
0.472642
0.488904
0.505536
0.522715
0.54069
0.559871
0.580919
0.604832
0.632993
0.667228
0.710017
0.764214
0.833442
0.92249
1.03814
1.19084
1.39799
1.68976
0.279632
0.176985
0.156707
0.153738
0.157403
0.164639
0.174166
0.185293
0.197587
0.210757
0.224601
0.238978
0.25379
0.268967
0.284458
0.300228
0.316253
0.332513
0.348987
0.365646
0.382454
0.399372
0.416356
0.433362
0.450365
0.467395
0.484571
0.502077
0.520094
0.538775
0.558297
0.578948
0.601229
0.625953
0.654301
0.68785
0.728845
0.779807
0.843845
0.924914
1.0283
1.16148
1.33574
1.56838
0.305408
0.186867
0.163523
0.158728
0.161053
0.167315
0.176145
0.186785
0.198756
0.211744
0.225532
0.23997
0.254952
0.270401
0.28626
0.302484
0.319043
0.335911
0.353062
0.370464
0.388079
0.405867
0.423786
0.441793
0.459851
0.477987
0.496336
0.515119
0.534545
0.554764
0.57591
0.598162
0.621856
0.647599
0.67635
0.709437
0.748785
0.796623
0.855565
0.928826
1.02048
1.1358
1.28195
1.46869
0.327612
0.198161
0.172096
0.165024
0.165621
0.170644
0.178586
0.188578
0.200086
0.212764
0.226382
0.240783
0.255853
0.271511
0.28769
0.304339
0.321416
0.338892
0.356732
0.374898
0.393347
0.41204
0.430942
0.450011
0.469207
0.48854
0.508138
0.528234
0.54906
0.570797
0.593594
0.617573
0.642919
0.670027
0.699613
0.732751
0.770908
0.816111
0.870482
0.936596
1.0176
1.11722
1.23997
1.39134
0.343891
0.211907
0.183134
0.17307
0.171479
0.174989
0.181839
0.191007
0.201889
0.214111
0.227431
0.241683
0.256748
0.272538
0.288981
0.306013
0.323586
0.341658
0.360188
0.379127
0.398427
0.418049
0.437964
0.458146
0.478571
0.499241
0.520237
0.541725
0.563924
0.587097
0.611516
0.637344
0.664663
0.693654
0.724753
0.758711
0.796577
0.840031
0.890736
0.950697
1.0224
1.10849
1.21189
1.33581
0.354902
0.230052
0.19749
0.1834
0.179128
0.180833
0.186341
0.194455
0.204504
0.216092
0.228961
0.242937
0.257891
0.273727
0.290364
0.307733
0.325773
0.344431
0.363651
0.383376
0.403551
0.424134
0.4451
0.466452
0.48823
0.51046
0.533139
0.556191
0.579741
0.60422
0.630159
0.657914
0.687559
0.719077
0.752586
0.78844
0.827241
0.870148
0.918438
0.973487
1.03724
1.11169
1.19892
1.30101
0.368874
0.255815
0.216058
0.196689
0.189289
0.188848
0.192682
0.199445
0.208421
0.219184
0.231455
0.24504
0.259794
0.275607
0.292392
0.310071
0.328575
0.347834
0.367774
0.388326
0.409438
0.431064
0.45317
0.475798
0.49913
0.523226
0.547958
0.572778
0.597657
0.623306
0.650664
0.6805
0.712944
0.747763
0.784682
0.823542
0.864408
0.90788
0.955036
1.00657
1.06366
1.12799
1.20141
1.28556
1.38155
0.40793
0.294747
0.240292
0.214074
0.203066
0.200001
0.201701
0.206755
0.214402
0.224164
0.235718
0.248835
0.263343
0.279108
0.296034
0.314033
0.33303
0.352932
0.373648
0.395098
0.417246
0.440046
0.463451
0.487565
0.512853
0.539073
0.566039
0.592634
0.618844
0.645746
0.674585
0.707002
0.743118
0.782321
0.823871
0.866942
0.910614
0.955668
1.00305
1.05185
1.102
1.15702
1.21855
1.28763
1.36511
0.508289
0.356366
0.272544
0.237001
0.221763
0.215375
0.214303
0.217174
0.223168
0.231715
0.242411
0.254974
0.269185
0.284868
0.301912
0.320209
0.339664
0.360169
0.381608
0.403892
0.426983
0.450832
0.47535
0.500661
0.526835
0.553822
0.581352
0.609107
0.637604
0.667885
0.701114
0.738083
0.779554
0.824846
0.872858
0.922268
0.969477
1.01742
1.06778
1.11388
1.15424
1.19972
1.24956
1.30484
1.36666
0.67749
0.433645
0.308653
0.264709
0.243273
0.232784
0.228419
0.228559
0.232351
0.239173
0.248552
0.260136
0.273654
0.288894
0.305684
0.323878
0.34336
0.36402
0.385737
0.408392
0.431908
0.456239
0.481275
0.506874
0.532463
0.558898
0.586445
0.615841
0.647492
0.68186
0.720181
0.762469
0.809401
0.860629
0.914711
0.971045
1.02785
1.08555
1.14787
1.19704
1.22367
1.26026
1.29635
1.33762
1.38462
0.824362
0.433125
0.33875
0.291108
0.263714
0.249254
0.241802
0.239305
0.240828
0.245726
0.253496
0.263736
0.276132
0.290429
0.306406
0.323889
0.34272
0.362763
0.383885
0.405958
0.428884
0.452605
0.477048
0.502113
0.52784
0.554732
0.583365
0.61444
0.648104
0.684364
0.723591
0.766736
0.815557
0.870387
0.929829
0.991352
1.05481
1.11775
1.18304
1.2451
1.29078
1.33434
1.35905
1.38863
1.42068
0.910672
0.44918
0.359993
0.309182
0.280814
0.264315
0.254735
0.250191
0.249809
0.252986
0.259227
0.268114
0.279308
0.292526
0.30752
0.324084
0.342026
0.36118
0.381405
0.402575
0.424581
0.447352
0.470825
0.494963
0.51994
0.546324
0.574825
0.606009
0.639882
0.676258
0.715315
0.7581
0.806368
0.861006
0.921362
0.985138
1.05008
1.11496
1.18261
1.24723
1.30663
1.36125
1.40938
1.44913
1.47335
0.839041
0.410928
0.352092
0.31482
0.289998
0.273693
0.263429
0.257922
0.256455
0.258503
0.263619
0.27141
0.281544
0.293731
0.30772
0.323291
0.340239
0.358391
0.377602
0.397753
0.418741
0.440498
0.462985
0.48621
0.510369
0.535955
0.563613
0.593811
0.626577
0.661771
0.699542
0.740733
0.786727
0.838522
0.896078
0.95809
1.02277
1.08993
1.16159
1.23384
1.29948
1.35854
1.41676
1.46875
1.51256
0.723434
0.372189
0.333333
0.309025
0.29004
0.27617
0.266926
0.261758
0.260218
0.261918
0.266499
0.273634
0.283026
0.294412
0.307552
0.322234
0.338263
0.355469
0.373716
0.39289
0.412904
0.433698
0.455257
0.477624
0.500974
0.525682
0.552233
0.580994
0.612058
0.645396
0.681173
0.720019
0.762975
0.811009
0.864546
0.923251
0.986474
1.05442
1.12809
1.20496
1.27869
1.34714
1.41213
1.46998
1.52309
0.644136
0.353523
0.317793
0.298911
0.284353
0.27348
0.266214
0.262325
0.261543
0.263602
0.268239
0.275202
0.284251
0.29516
0.30772
0.321742
0.337049
0.353488
0.370933
0.389284
0.408464
0.428429
0.449177
0.470762
0.493332
0.517154
0.542566
0.56985
0.599143
0.630516
0.664171
0.700618
0.740692
0.785332
0.835284
0.890916
0.952356
1.01994
1.09398
1.17277
1.2521
1.32908
1.40237
1.46919
1.53054
0.615177
0.353307
0.308933
0.289225
0.27656
0.268038
0.262871
0.260655
0.261113
0.264022
0.26918
0.276395
0.285479
0.296251
0.308537
0.322173
0.337011
0.352916
0.369779
0.387513
0.406055
0.425372
0.445468
0.466396
0.488271
0.511285
0.535675
0.561661
0.589408
0.619065
0.650884
0.685346
0.723201
0.765385
0.81285
0.866397
0.92662
0.993958
1.06843
1.14869
1.23189
1.31494
1.39534
1.47034
1.53896
0.620648
0.362748
0.305311
0.281604
0.26889
0.261752
0.258307
0.257723
0.259562
0.263562
0.269531
0.277304
0.28673
0.297661
0.309953
0.323471
0.33809
0.353698
0.370203
0.387532
0.405634
0.424486
0.444095
0.464506
0.48581
0.508146
0.531693
0.55664
0.583172
0.611503
0.641951
0.675021
0.711465
0.752255
0.79849
0.851243
0.911414
0.979584
1.05573
1.13869
1.22599
1.31454
1.40114
1.48254
1.55664
0.650108
0.376596
0.304814
0.276044
0.262232
0.255668
0.253426
0.254196
0.257324
0.262452
0.269352
0.277859
0.28783
0.299137
0.311657
0.325275
0.339887
0.3554
0.371737
0.388839
0.406666
0.425202
0.444456
0.464466
0.485305
0.507086
0.529956
0.554096
0.57972
0.607103
0.636636
0.668893
0.704683
0.745061
0.791261
0.844566
0.906123
0.976694
1.05634
1.14398
1.23717
1.33238
1.4259
1.51365
1.59238
0.697759
0.391893
0.305862
0.272006
0.256677
0.250152
0.24864
0.250419
0.254623
0.260778
0.268599
0.277891
0.288505
0.300312
0.313201
0.327066
0.341818
0.357376
0.373677
0.390671
0.408329
0.426638
0.445609
0.465275
0.485702
0.50699
0.52928
0.552762
0.577687
0.604396
0.633368
0.665273
0.701026
0.7418
0.788986
0.844068
0.908427
0.983043
1.06812
1.16267
1.26415
1.36857
1.47089
1.56645
1.65068
0.757928
0.406705
0.307357
0.268895
0.251993
0.245202
0.24406
0.246524
0.25155
0.258559
0.267196
0.27723
0.288485
0.300826
0.314135
0.328313
0.343273
0.358943
0.375266
0.392201
0.409721
0.427819
0.446504
0.465812
0.485804
0.506582
0.528296
0.551159
0.575472
0.601651
0.630277
0.66214
0.69829
0.740053
0.789
0.846829
0.915161
0.995222
1.08743
1.19089
1.303
1.4193
1.53366
1.6394
1.73118
0.825017
0.419819
0.30861
0.266244
0.247896
0.240693
0.239672
0.242552
0.248155
0.255812
0.265108
0.275766
0.287585
0.300409
0.31411
0.328583
0.343741
0.359512
0.375841
0.392689
0.410031
0.427859
0.446185
0.465045
0.484505
0.504676
0.525729
0.547914
0.571591
0.597264
0.625624
0.657598
0.694393
0.737508
0.788708
0.849915
0.922997
1.00945
1.10994
1.22375
1.3483
1.47876
1.60814
1.72783
1.82999
0.894274
0.430664
0.30929
0.26377
0.244182
0.23652
0.235454
0.23854
0.2445
0.252595
0.262363
0.273485
0.285732
0.298924
0.31292
0.327604
0.34288
0.358673
0.374924
0.391592
0.408649
0.426088
0.443919
0.462183
0.480954
0.500361
0.520602
0.541977
0.564913
0.590008
0.618074
0.65018
0.687695
0.732301
0.785958
0.850807
0.928965
1.02219
1.13144
1.25625
1.39415
1.54019
1.68675
1.82396
1.94095
0.962137
0.439147
0.309338
0.261362
0.240756
0.232638
0.231422
0.23455
0.240676
0.249015
0.25906
0.270463
0.282967
0.296371
0.310516
0.325272
0.340533
0.356215
0.372252
0.388596
0.405215
0.422099
0.43926
0.456741
0.474632
0.493082
0.512328
0.532721
0.554765
0.579154
0.60682
0.638975
0.677145
0.723183
0.779238
0.847652
0.930769
1.0306
1.14838
1.28395
1.43511
1.59708
1.76202
1.91924
2.05616
1.02612
0.445448
0.308851
0.259022
0.237601
0.229056
0.227623
0.230668
0.236803
0.245206
0.255343
0.266839
0.279415
0.292852
0.306972
0.32163
0.336709
0.352113
0.367766
0.383611
0.399611
0.415751
0.432046
0.448546
0.465356
0.482653
0.500714
0.519949
0.540935
0.564465
0.591582
0.62363
0.662279
0.709534
0.76771
0.839325
0.926914
1.03271
1.15818
1.30349
1.46689
1.64404
1.82756
2.00669
2.16768
1.08457
0.449846
0.307981
0.256801
0.234744
0.22581
0.224117
0.226987
0.233
0.241313
0.251372
0.262783
0.275249
0.288534
0.302445
0.316824
0.331539
0.346483
0.361568
0.376729
0.391922
0.40713
0.422368
0.437698
0.453243
0.469209
0.485917
0.503834
0.523611
0.546126
0.572526
0.604267
0.643138
0.691278
0.751135
0.825371
0.916672
1.02743
1.15933
1.31284
1.4867
1.67749
1.87898
2.08144
2.271
1.13643
0.452645
0.306875
0.254755
0.232212
0.22293
0.220955
0.223581
0.22937
0.237465
0.247299
0.258465
0.270651
0.28361
0.297136
0.311058
0.32523
0.339535
0.353875
0.368176
0.382387
0.39649
0.410504
0.424504
0.438632
0.453128
0.468353
0.484828
0.503269
0.524631
0.550141
0.581347
0.620134
0.668741
0.729725
0.805859
0.899942
1.01449
1.15131
1.31117
1.49339
1.69577
1.9141
2.14115
2.36453
1.18106
0.454115
0.305642
0.252913
0.230012
0.220425
0.21816
0.220494
0.225982
0.233758
0.243245
0.25403
0.265791
0.278271
0.291253
0.304556
0.318025
0.331531
0.344967
0.358254
0.371335
0.384191
0.396852
0.409404
0.422012
0.434945
0.448604
0.463555
0.48057
0.500659
0.525114
0.555544
0.593905
0.642508
0.703989
0.781211
0.877057
0.994122
1.13434
1.29868
1.48712
1.69892
1.93278
2.18561
2.44879
1.21821
0.454491
0.304341
0.251268
0.228116
0.218269
0.215718
0.217733
0.222865
0.230245
0.239293
0.249587
0.260804
0.272677
0.284983
0.297533
0.310163
0.322738
0.335145
0.347296
0.359138
0.37065
0.381873
0.392908
0.403941
0.415269
0.427326
0.440715
0.456246
0.474968
0.498212
0.527623
0.565196
0.613289
0.674596
0.752047
0.848605
0.966941
1.10908
1.27621
1.46892
1.68814
1.93612
2.21568
2.5249
1.2479
0.454007
0.302991
0.249769
0.226459
0.2164
0.213577
0.215262
0.220006
0.226939
0.235478
0.245202
0.255783
0.266952
0.27848
0.290174
0.301865
0.313411
0.324697
0.335635
0.346172
0.356285
0.366033
0.375531
0.384986
0.394716
0.405179
0.417006
0.431027
0.448311
0.4702
0.49835
0.534768
0.581832
0.642273
0.719081
0.815302
0.933707
1.07644
1.24488
1.44022
1.66502
1.92544
2.23175
2.59201
1.27043
0.452918
0.301569
0.248332
0.224943
0.214721
0.211653
0.213013
0.217355
0.22381
0.231798
0.240898
0.250781
0.261178
0.271859
0.282626
0.293311
0.303768
0.313882
0.323569
)
;

boundaryField
{
    leftWall
    {
        Cmu             0.09;
        kappa           0.41;
        E               9.8;
        type            epsilonWallFunction;
        value           nonuniform List<scalar> 
44
(
0.0330821
0.0488345
0.0606775
0.077696
0.0948373
0.109664
0.122295
0.133918
0.145102
0.157047
0.170626
0.18672
0.205816
0.228093
0.253122
0.279632
0.305408
0.327612
0.343891
0.354902
0.368874
0.40793
0.508289
0.67749
0.824362
0.910672
0.839041
0.723434
0.644136
0.615177
0.620648
0.650108
0.697759
0.757928
0.825017
0.894274
0.962137
1.02612
1.08457
1.13643
1.18106
1.21821
1.2479
1.27043
)
;
    }
    rightWall
    {
        Cmu             0.09;
        kappa           0.41;
        E               9.8;
        type            epsilonWallFunction;
        value           nonuniform 0();
    }
    lowerWall
    {
        Cmu             0.09;
        kappa           0.41;
        E               9.8;
        type            epsilonWallFunction;
        value           nonuniform List<scalar> 
44
(
0.0330821
0.0895438
0.166465
0.239304
0.305714
0.361607
0.412379
0.461274
0.510834
0.563128
0.619756
0.681862
0.750159
0.824962
0.906231
0.993609
1.08646
1.18393
1.28496
1.38832
1.49264
1.59645
1.69812
1.79595
1.88811
1.97271
2.04779
2.11135
2.1614
2.19589
2.21254
2.20813
2.18695
2.15398
2.10406
2.03492
1.94622
1.83948
1.71853
1.58991
1.46008
1.31647
1.17351
1.01351
)
;
    }
    atmosphere
    {
        type            inletOutlet;
        inletValue      nonuniform 0();
        value           nonuniform 0();
    }
    defaultFaces
    {
        type            empty;
    }
    procBoundary0to1
    {
        type            processor;
        value           nonuniform List<scalar> 
44
(
0.892424
0.89232
1.23711
1.5909
1.92428
2.24839
2.56182
2.90145
3.30177
3.73957
3.63825
3.23427
2.79418
2.41619
2.11538
1.88336
1.70756
1.57694
1.48305
1.41954
1.41954
1.48971
1.45165
1.4354
1.43726
1.45728
1.49664
1.5452
1.56801
1.58263
1.5986
1.62127
1.65965
1.72025
1.80439
1.90934
2.03002
2.1604
2.29567
2.43019
2.56509
2.70286
2.84657
2.99568
)
;
    }
    procBoundary0to2
    {
        type            processor;
        value           nonuniform List<scalar> 
46
(
0.332766
0.341474
0.349759
0.357749
0.365666
0.373846
0.382765
0.393062
0.405575
0.421368
0.441774
0.468436
0.503341
0.548863
0.607752
0.683051
0.777908
0.89523
1.03732
1.2058
1.40236
1.63099
1.9016
2.23257
2.64517
1.28646
0.451508
0.300008
0.246835
0.223444
0.213116
0.209839
0.210891
0.214834
0.2208
0.228214
0.23666
0.245809
0.255395
0.265188
0.274992
0.284638
0.293982
0.302909
0.332766
0.311339
)
;
    }
}


// ************************************************************************* //
