/*--------------------------------*- C++ -*----------------------------------*\
| =========                 |                                                 |
| \\      /  F ield         | OpenFOAM: The Open Source CFD Toolbox           |
|  \\    /   O peration     | Version:  5.0                                   |
|   \\  /    A nd           | Web:      www.OpenFOAM.org                      |
|    \\/     M anipulation  |                                                 |
\*---------------------------------------------------------------------------*/
FoamFile
{
    version     2.0;
    format      ascii;
    class       surfaceScalarField;
    location    "0.35";
    object      phi;
}
// * * * * * * * * * * * * * * * * * * * * * * * * * * * * * * * * * * * * * //

dimensions      [0 3 -1 0 0 0 0];

internalField   nonuniform List<scalar> 
3781
(
-3.35644e-06
3.35644e-06
-4.08034e-06
7.23902e-07
-2.80124e-06
-1.2791e-06
-6.64647e-07
-2.1366e-06
1.75136e-06
-2.41601e-06
4.1843e-06
-2.43293e-06
6.50354e-06
-2.31924e-06
8.66821e-06
-2.16467e-06
1.06812e-05
-2.01302e-06
1.25636e-05
-1.88238e-06
1.43425e-05
-1.77888e-06
1.60449e-05
-1.70241e-06
1.76946e-05
-1.64975e-06
1.93112e-05
-1.61658e-06
2.09097e-05
-1.59845e-06
2.25009e-05
-1.59121e-06
2.40921e-05
-1.59117e-06
2.56871e-05
-1.59508e-06
2.72872e-05
-1.60008e-06
2.88908e-05
-1.6036e-06
3.0494e-05
-1.60319e-06
3.20904e-05
-1.59639e-06
3.3671e-05
-1.5806e-06
3.52239e-05
-1.55289e-06
3.67337e-05
-1.50984e-06
3.8181e-05
-1.44733e-06
3.95413e-05
-1.36029e-06
4.07836e-05
-1.24224e-06
4.18682e-05
-1.08465e-06
4.27433e-05
-8.75076e-07
4.3337e-05
-5.93681e-07
4.35387e-05
-2.0173e-07
4.31704e-05
3.68313e-07
4.20485e-05
1.12189e-06
4.00075e-05
2.04104e-06
3.68795e-05
3.12795e-06
3.25183e-05
4.36124e-06
2.68495e-05
5.66876e-06
1.9947e-05
6.90249e-06
1.2095e-05
7.85199e-06
3.78696e-06
8.30808e-06
-4.57381e-06
8.36077e-06
-1.23863e-05
7.81246e-06
4.35843e-06
-1.63007e-06
4.98651e-06
-1.15959e-06
2.5343e-07
2.21691e-07
-2.66038e-06
2.09679e-06
-4.0117e-06
4.207e-06
-4.52622e-06
6.35936e-06
-4.58529e-06
8.46746e-06
-4.42733e-06
1.04946e-05
-4.19179e-06
1.2434e-05
-3.95245e-06
1.42948e-05
-3.7432e-06
1.60923e-05
-3.57632e-06
1.78425e-05
-3.45266e-06
1.95603e-05
-3.36754e-06
2.12578e-05
-3.31409e-06
2.29444e-05
-3.28502e-06
2.46266e-05
-3.2734e-06
2.63084e-05
-3.27298e-06
2.79915e-05
-3.27818e-06
2.96754e-05
-3.28399e-06
3.13576e-05
-3.28576e-06
3.30334e-05
-3.27901e-06
3.46961e-05
-3.25912e-06
3.63366e-05
-3.2211e-06
3.7943e-05
-3.15932e-06
3.95004e-05
-3.06718e-06
4.09898e-05
-2.93671e-06
4.23877e-05
-2.7582e-06
4.3665e-05
-2.51952e-06
4.47856e-05
-2.20529e-06
4.5706e-05
-1.79552e-06
4.63765e-05
-1.2641e-06
4.67521e-05
-5.77321e-07
4.68031e-05
3.17248e-07
4.64514e-05
1.47357e-06
4.55573e-05
2.93513e-06
4.3948e-05
4.73728e-06
4.14156e-05
6.89369e-06
3.77247e-05
9.35962e-06
3.26497e-05
1.19775e-05
2.60725e-05
1.44292e-05
1.81464e-05
1.62342e-05
9.55724e-06
1.69499e-05
1.5975e-06
1.57722e-05
1.01645e-05
-8.93342e-08
5.07584e-06
7.98285e-07
-6.34189e-07
2.1942e-06
-4.0563e-06
3.94298e-06
-5.76048e-06
5.85188e-06
-6.43512e-06
7.80835e-06
-6.54176e-06
9.75275e-06
-6.37173e-06
1.16585e-05
-6.09752e-06
1.35181e-05
-5.81206e-06
1.53345e-05
-5.55963e-06
1.71152e-05
-5.35703e-06
1.8869e-05
-5.2064e-06
2.0604e-05
-5.10262e-06
2.23275e-05
-5.03757e-06
2.40448e-05
-5.00232e-06
2.57597e-05
-4.98822e-06
2.7474e-05
-4.98728e-06
2.9188e-05
-4.99222e-06
3.09004e-05
-4.99637e-06
3.2608e-05
-4.99336e-06
3.43059e-05
-4.97693e-06
3.59873e-05
-4.9405e-06
3.76431e-05
-4.87691e-06
3.92618e-05
-4.77799e-06
4.08288e-05
-4.63417e-06
4.2326e-05
-4.43399e-06
4.37314e-05
-4.16354e-06
4.50176e-05
-3.80575e-06
4.61519e-05
-3.33955e-06
4.70952e-05
-2.73887e-06
4.78026e-05
-1.9715e-06
4.82241e-05
-9.98815e-07
4.83127e-05
2.28684e-07
4.80149e-05
1.77131e-06
4.72626e-05
3.68749e-06
4.59723e-05
6.02752e-06
4.40462e-05
8.81982e-06
4.13652e-05
1.20407e-05
3.77813e-05
1.55614e-05
3.31329e-05
1.90775e-05
2.7331e-05
2.20361e-05
2.06306e-05
2.36504e-05
1.37288e-05
2.26739e-05
1.6793e-05
8.71549e-07
4.20429e-06
2.03864e-06
-1.80128e-06
3.56355e-06
-5.5812e-06
5.28329e-06
-7.48023e-06
7.08603e-06
-8.23786e-06
8.91374e-06
-8.36947e-06
1.07388e-05
-8.19682e-06
1.25491e-05
-7.90783e-06
1.43408e-05
-7.60372e-06
1.61145e-05
-7.3333e-06
1.7873e-05
-7.11561e-06
1.96203e-05
-6.95362e-06
2.13599e-05
-6.84226e-06
2.30952e-05
-6.77288e-06
2.48286e-05
-6.73576e-06
2.65617e-05
-6.72124e-06
2.82946e-05
-6.72021e-06
3.00266e-05
-6.72421e-06
3.17555e-05
-6.72526e-06
3.34777e-05
-6.71561e-06
3.51882e-05
-6.68742e-06
3.68801e-05
-6.6324e-06
3.85446e-05
-6.54137e-06
4.01704e-05
-6.40384e-06
4.17437e-05
-6.20752e-06
4.32475e-05
-5.93776e-06
4.46609e-05
-5.57689e-06
4.59586e-05
-5.1035e-06
4.71107e-05
-4.49164e-06
4.80818e-05
-3.71e-06
4.88316e-05
-2.7213e-06
4.9315e-05
-1.48219e-06
4.94854e-05
5.83467e-08
4.92958e-05
1.96088e-06
4.8698e-05
4.28527e-06
4.76419e-05
7.08358e-06
4.60764e-05
1.03854e-05
4.39447e-05
1.41723e-05
4.1172e-05
1.8334e-05
3.7649e-05
2.26005e-05
3.32365e-05
2.64487e-05
2.78755e-05
2.90114e-05
2.16747e-05
2.88747e-05
2.38253e-05
1.22722e-06
2.97707e-06
2.77118e-06
-3.34524e-06
4.4773e-06
-7.28732e-06
6.22976e-06
-9.23269e-06
7.9842e-06
-9.9923e-06
9.73211e-06
-1.01174e-05
1.14753e-05
-9.94e-06
1.3216e-05
-9.64859e-06
1.49556e-05
-9.34331e-06
1.66947e-05
-9.07238e-06
1.84339e-05
-8.85474e-06
2.01737e-05
-8.69343e-06
2.19148e-05
-8.58338e-06
2.36577e-05
-8.51582e-06
2.54027e-05
-8.48069e-06
2.71492e-05
-8.46783e-06
2.88965e-05
-8.46747e-06
3.06426e-05
-8.47031e-06
3.23848e-05
-8.46743e-06
3.41191e-05
-8.44994e-06
3.58404e-05
-8.4087e-06
3.75419e-05
-8.33387e-06
3.9215e-05
-8.21449e-06
4.08491e-05
-8.03798e-06
4.24312e-05
-7.78959e-06
4.39452e-05
-7.4518e-06
4.5372e-05
-7.0036e-06
4.66882e-05
-6.41975e-06
4.78666e-05
-5.67007e-06
4.88754e-05
-4.71881e-06
4.96786e-05
-3.52441e-06
5.02361e-05
-2.03976e-06
5.05063e-05
-2.11815e-07
5.04488e-05
2.01836e-06
5.00249e-05
4.70918e-06
4.91989e-05
7.90957e-06
4.79376e-05
1.16466e-05
4.62058e-05
1.59042e-05
4.3953e-05
2.05868e-05
4.10911e-05
2.54624e-05
3.74685e-05
3.00713e-05
3.28824e-05
3.35975e-05
2.70952e-05
3.46619e-05
3.117e-05
1.38417e-06
1.5929e-06
3.22053e-06
-5.18161e-06
5.08019e-06
-9.14697e-06
6.8696e-06
-1.10221e-05
8.59717e-06
-1.17199e-05
1.02926e-05
-1.18128e-05
1.19795e-05
-1.16269e-05
1.36711e-05
-1.13403e-05
1.53731e-05
-1.10453e-05
1.70868e-05
-1.0786e-05
1.88115e-05
-1.05794e-05
2.0546e-05
-1.04279e-05
2.22888e-05
-1.03262e-05
2.40385e-05
-1.02655e-05
2.57935e-05
-1.02357e-05
2.75521e-05
-1.02264e-05
2.93122e-05
-1.02276e-05
3.10713e-05
-1.02294e-05
3.2826e-05
-1.02221e-05
3.45721e-05
-1.01961e-05
3.63045e-05
-1.01411e-05
3.80165e-05
-1.00459e-05
3.97e-05
-9.89801e-06
4.1345e-05
-9.68303e-06
4.29395e-05
-9.38402e-06
4.44686e-05
-8.98092e-06
4.59148e-05
-8.44979e-06
4.72571e-05
-7.76205e-06
4.84708e-05
-6.88383e-06
4.95275e-05
-5.77553e-06
5.03951e-05
-4.39198e-06
5.10384e-05
-2.68309e-06
5.14211e-05
-5.94497e-07
5.15081e-05
1.93139e-06
5.1267e-05
4.95026e-06
5.06691e-05
8.50745e-06
4.96879e-05
1.26279e-05
4.82931e-05
1.7299e-05
4.64375e-05
2.24424e-05
4.40322e-05
2.78677e-05
4.09109e-05
3.31926e-05
3.67932e-05
3.77152e-05
3.12379e-05
4.02172e-05
3.88223e-05
1.52331e-06
6.95909e-08
3.53939e-06
-7.19769e-06
5.48269e-06
-1.10903e-05
7.27967e-06
-1.28191e-05
8.97737e-06
-1.34176e-05
1.06303e-05
-1.34657e-05
1.22751e-05
-1.32717e-05
1.39309e-05
-1.29961e-05
1.56058e-05
-1.27201e-05
1.73012e-05
-1.24815e-05
1.9016e-05
-1.22942e-05
2.07476e-05
-1.21595e-05
2.2493e-05
-1.20716e-05
2.42494e-05
-1.20219e-05
2.6014e-05
-1.20003e-05
2.77839e-05
-1.19963e-05
2.95562e-05
-1.19999e-05
3.13277e-05
-1.20008e-05
3.30946e-05
-1.19891e-05
3.48528e-05
-1.19542e-05
3.65969e-05
-1.18851e-05
3.83206e-05
-1.17696e-05
4.00163e-05
-1.15938e-05
4.16749e-05
-1.13416e-05
4.32851e-05
-1.09943e-05
4.48338e-05
-1.05296e-05
4.63051e-05
-9.92107e-06
4.76803e-05
-9.13728e-06
4.89376e-05
-8.14109e-06
5.00516e-05
-6.88953e-06
5.09939e-05
-5.33429e-06
5.17336e-05
-3.42285e-06
5.22391e-05
-1.10001e-06
5.24799e-05
1.69059e-06
5.24283e-05
5.00187e-06
5.20596e-05
8.87614e-06
5.13501e-05
1.33374e-05
5.02702e-05
1.83789e-05
4.87708e-05
2.39418e-05
4.67577e-05
2.98808e-05
4.40503e-05
3.59e-05
4.0319e-05
4.14465e-05
3.49919e-05
4.55443e-05
4.66439e-05
1.67168e-06
-1.60209e-06
3.78834e-06
-9.31435e-06
5.74805e-06
-1.305e-05
7.51653e-06
-1.45876e-05
9.17183e-06
-1.50729e-05
1.07827e-05
-1.50766e-05
1.23911e-05
-1.48801e-05
1.40181e-05
-1.46231e-05
1.56718e-05
-1.43738e-05
1.73535e-05
-1.41633e-05
1.90612e-05
-1.40019e-05
2.07912e-05
-1.38895e-05
2.25397e-05
-1.382e-05
2.43025e-05
-1.37847e-05
2.60759e-05
-1.37736e-05
2.78562e-05
-1.37766e-05
2.96397e-05
-1.37835e-05
3.14229e-05
-1.3784e-05
3.32017e-05
-1.37679e-05
3.49717e-05
-1.37242e-05
3.67277e-05
-1.36412e-05
3.84639e-05
-1.35058e-05
4.01732e-05
-1.3303e-05
4.18471e-05
-1.30155e-05
4.34757e-05
-1.26229e-05
4.50472e-05
-1.21011e-05
4.65479e-05
-1.14218e-05
4.79615e-05
-1.05509e-05
4.92689e-05
-9.44848e-06
5.04479e-05
-8.06858e-06
5.14736e-05
-6.35998e-06
5.23188e-05
-4.26807e-06
5.29559e-05
-1.73706e-06
5.33584e-05
1.28812e-06
5.35025e-05
4.85772e-06
5.33672e-05
9.0115e-06
5.29313e-05
1.37733e-05
5.21675e-05
1.91427e-05
5.10281e-05
2.50813e-05
4.94202e-05
3.14886e-05
4.71615e-05
3.81587e-05
4.39024e-05
4.47056e-05
3.8995e-05
5.04518e-05
5.43222e-05
1.82571e-06
-3.4278e-06
3.98517e-06
-1.14738e-05
5.9084e-06
-1.49732e-05
7.61859e-06
-1.62977e-05
9.21903e-06
-1.66733e-05
1.07849e-05
-1.66425e-05
1.23582e-05
-1.64534e-05
1.39588e-05
-1.62236e-05
1.55938e-05
-1.60088e-05
1.72634e-05
-1.58329e-05
1.89647e-05
-1.57032e-05
2.06931e-05
-1.56179e-05
2.24437e-05
-1.55707e-05
2.42117e-05
-1.55527e-05
2.59925e-05
-1.55544e-05
2.77816e-05
-1.55658e-05
2.9575e-05
-1.55769e-05
3.13685e-05
-1.55775e-05
3.3158e-05
-1.55573e-05
3.49389e-05
-1.55051e-05
3.67064e-05
-1.54087e-05
3.84549e-05
-1.52543e-05
4.01779e-05
-1.5026e-05
4.18678e-05
-1.47054e-05
4.35159e-05
-1.4271e-05
4.5112e-05
-1.36973e-05
4.66446e-05
-1.29543e-05
4.80999e-05
-1.20062e-05
4.94618e-05
-1.08104e-05
5.07114e-05
-9.31818e-06
5.18269e-05
-7.47545e-06
5.27844e-05
-5.22561e-06
5.35597e-05
-2.51237e-06
5.41301e-05
7.17806e-07
5.44754e-05
4.51234e-06
5.45787e-05
8.90822e-06
5.44236e-05
1.39284e-05
5.39885e-05
1.95777e-05
5.32351e-05
2.58347e-05
5.20854e-05
3.26384e-05
5.03798e-05
3.98643e-05
4.77974e-05
4.7288e-05
4.37024e-05
5.45468e-05
6.11759e-05
1.97587e-06
-5.40367e-06
4.13159e-06
-1.36295e-05
5.98046e-06
-1.68221e-05
7.61282e-06
-1.79301e-05
9.15033e-06
-1.82108e-05
1.06685e-05
-1.81607e-05
1.22062e-05
-1.79911e-05
1.37805e-05
-1.77979e-05
1.53965e-05
-1.76249e-05
1.70534e-05
-1.74898e-05
1.8747e-05
-1.73968e-05
2.04721e-05
-1.7343e-05
2.22229e-05
-1.73215e-05
2.39938e-05
-1.73236e-05
2.57795e-05
-1.73401e-05
2.75751e-05
-1.73614e-05
2.93759e-05
-1.73777e-05
3.11776e-05
-1.73792e-05
3.29758e-05
-1.73555e-05
3.4766e-05
-1.72953e-05
3.65434e-05
-1.71862e-05
3.83029e-05
-1.70138e-05
4.00386e-05
-1.67616e-05
4.17437e-05
-1.64105e-05
4.34107e-05
-1.5938e-05
4.50312e-05
-1.53178e-05
4.65956e-05
-1.45188e-05
4.80933e-05
-1.35039e-05
4.95115e-05
-1.22285e-05
5.08343e-05
-1.0641e-05
5.20432e-05
-8.68434e-06
5.31172e-05
-6.29962e-06
5.40349e-05
-3.43007e-06
5.47767e-05
-2.40384e-08
5.53266e-05
3.96241e-06
5.56724e-05
8.56248e-06
5.58045e-05
1.37963e-05
5.5712e-05
1.96702e-05
5.5374e-05
2.61727e-05
5.4743e-05
3.32693e-05
5.37138e-05
4.08935e-05
5.20603e-05
4.89415e-05
4.93013e-05
5.73057e-05
6.61292e-05
2.15066e-06
-7.55433e-06
4.30113e-06
-1.578e-05
6.08247e-06
-1.86034e-05
7.65497e-06
-1.95026e-05
9.15279e-06
-1.97087e-05
1.06484e-05
-1.96563e-05
1.21763e-05
-1.95189e-05
1.37504e-05
-1.9372e-05
1.53742e-05
-1.92486e-05
1.70453e-05
-1.91609e-05
1.87586e-05
-1.91102e-05
2.05081e-05
-1.90924e-05
2.22871e-05
-1.91004e-05
2.40892e-05
-1.91258e-05
2.59086e-05
-1.91595e-05
2.77397e-05
-1.91924e-05
2.95772e-05
-1.92153e-05
3.14165e-05
-1.92185e-05
3.32529e-05
-1.91919e-05
3.50819e-05
-1.91243e-05
3.68989e-05
-1.90031e-05
3.86988e-05
-1.88137e-05
4.04762e-05
-1.8539e-05
4.22251e-05
-1.81594e-05
4.39389e-05
-1.76518e-05
4.56107e-05
-1.69896e-05
4.72333e-05
-1.61414e-05
4.87991e-05
-1.50696e-05
5.02987e-05
-1.37281e-05
5.17199e-05
-1.20622e-05
5.30467e-05
-1.00112e-05
5.42605e-05
-7.51345e-06
5.53419e-05
-4.51141e-06
5.62736e-05
-9.55716e-07
5.7043e-05
3.19294e-06
5.76435e-05
7.96201e-06
5.8074e-05
1.33658e-05
5.83374e-05
1.94068e-05
5.84357e-05
2.60744e-05
5.83628e-05
3.33423e-05
5.80909e-05
4.11654e-05
5.75488e-05
4.94836e-05
5.65834e-05
5.82711e-05
6.77682e-05
2.28887e-06
-9.8432e-06
4.38008e-06
-1.78712e-05
6.06441e-06
-2.02878e-05
7.56128e-06
-2.09995e-05
9.00691e-06
-2.11543e-05
1.04667e-05
-2.11161e-05
1.197e-05
-2.10222e-05
1.35278e-05
-2.09299e-05
1.51419e-05
-2.08627e-05
1.68089e-05
-2.08279e-05
1.85232e-05
-2.08245e-05
2.02779e-05
-2.08471e-05
2.20657e-05
-2.08883e-05
2.38798e-05
-2.09399e-05
2.57134e-05
-2.09932e-05
2.75607e-05
-2.10396e-05
2.94158e-05
-2.10704e-05
3.12737e-05
-2.10763e-05
3.31295e-05
-2.10478e-05
3.49788e-05
-2.09736e-05
3.68169e-05
-2.08412e-05
3.8639e-05
-2.06358e-05
4.04402e-05
-2.03402e-05
4.2215e-05
-1.99342e-05
4.39577e-05
-1.93945e-05
4.56628e-05
-1.86947e-05
4.73257e-05
-1.78043e-05
4.89423e-05
-1.66863e-05
5.05078e-05
-1.52936e-05
5.20141e-05
-1.35684e-05
5.34484e-05
-1.14455e-05
5.47941e-05
-8.85916e-06
5.60332e-05
-5.75049e-06
5.71502e-05
-2.07271e-06
5.81358e-05
2.20735e-06
5.89889e-05
7.10888e-06
5.97177e-05
1.26371e-05
6.03393e-05
1.87851e-05
6.08796e-05
2.55341e-05
6.13722e-05
3.28497e-05
6.18598e-05
4.06778e-05
6.24034e-05
4.894e-05
6.31254e-05
5.75491e-05
6.64793e-05
2.39639e-06
-1.22396e-05
4.40327e-06
-1.98781e-05
5.99175e-06
-2.18762e-05
7.42084e-06
-2.24286e-05
8.81958e-06
-2.2553e-05
1.0245e-05
-2.25415e-05
1.1722e-05
-2.24991e-05
1.32598e-05
-2.24677e-05
1.48595e-05
-2.24624e-05
1.65173e-05
-2.24857e-05
1.82269e-05
-2.25341e-05
1.99812e-05
-2.26013e-05
2.17724e-05
-2.26794e-05
2.3593e-05
-2.27605e-05
2.54359e-05
-2.28361e-05
2.72944e-05
-2.28981e-05
2.91623e-05
-2.29384e-05
3.10343e-05
-2.29483e-05
3.29053e-05
-2.29187e-05
3.47705e-05
-2.28388e-05
3.66254e-05
-2.26962e-05
3.84655e-05
-2.24759e-05
4.02859e-05
-2.21606e-05
4.20816e-05
-2.17299e-05
4.38474e-05
-2.11603e-05
4.55789e-05
-2.04262e-05
4.72739e-05
-1.94992e-05
4.89326e-05
-1.8345e-05
5.05557e-05
-1.69167e-05
5.21401e-05
-1.51528e-05
5.36768e-05
-1.29821e-05
5.51506e-05
-1.0333e-05
5.65441e-05
-7.14398e-06
5.78423e-05
-3.37091e-06
5.90382e-05
1.01147e-06
6.01357e-05
6.0114e-06
6.1151e-05
1.16218e-05
6.21138e-05
1.78223e-05
6.30681e-05
2.45797e-05
6.40746e-05
3.18433e-05
6.52156e-05
3.95368e-05
6.66076e-05
4.7548e-05
6.84347e-05
5.5722e-05
6.38806e-05
2.46417e-06
-1.47038e-05
4.37798e-06
-2.17919e-05
5.88779e-06
-2.3386e-05
7.26512e-06
-2.38059e-05
8.62504e-06
-2.39129e-05
1.00174e-05
-2.39339e-05
1.14653e-05
-2.39471e-05
1.29781e-05
-2.39806e-05
1.45572e-05
-2.40414e-05
1.61989e-05
-2.41274e-05
1.78971e-05
-2.42323e-05
1.96441e-05
-2.43483e-05
2.14321e-05
-2.44674e-05
2.32529e-05
-2.45813e-05
2.50989e-05
-2.46821e-05
2.69628e-05
-2.47621e-05
2.88381e-05
-2.48136e-05
3.07186e-05
-2.48289e-05
3.25992e-05
-2.47993e-05
3.44749e-05
-2.47146e-05
3.63412e-05
-2.45625e-05
3.81936e-05
-2.43282e-05
4.00273e-05
-2.39944e-05
4.18376e-05
-2.35401e-05
4.3619e-05
-2.29417e-05
4.53674e-05
-2.21746e-05
4.70826e-05
-2.12144e-05
4.87699e-05
-2.00323e-05
5.04368e-05
-1.85837e-05
5.2087e-05
-1.6803e-05
5.37155e-05
-1.46106e-05
5.53085e-05
-1.19261e-05
5.68478e-05
-8.6832e-06
5.83172e-05
-4.84031e-06
5.97105e-05
-3.81913e-07
6.10354e-05
4.6865e-06
6.23144e-05
1.03428e-05
6.35862e-05
1.65505e-05
6.49063e-05
2.32596e-05
6.63486e-05
3.0401e-05
6.80078e-05
3.78776e-05
7.00036e-05
4.55523e-05
7.2489e-05
5.32365e-05
6.06977e-05
2.48566e-06
-1.71894e-05
4.32295e-06
-2.36292e-05
5.78841e-06
-2.48515e-05
7.1359e-06
-2.51534e-05
8.46501e-06
-2.52421e-05
9.82356e-06
-2.52924e-05
1.12371e-05
-2.53606e-05
1.27177e-05
-2.54611e-05
1.42681e-05
-2.55918e-05
1.58856e-05
-2.5745e-05
1.75642e-05
-2.59109e-05
1.92962e-05
-2.60803e-05
2.10733e-05
-2.62444e-05
2.2887e-05
-2.6395e-05
2.47291e-05
-2.65243e-05
2.65917e-05
-2.66247e-05
2.84675e-05
-2.66894e-05
3.035e-05
-2.67114e-05
3.22337e-05
-2.66829e-05
3.41134e-05
-2.65943e-05
3.59843e-05
-2.64334e-05
3.78421e-05
-2.6186e-05
3.96821e-05
-2.58345e-05
4.14994e-05
-2.53574e-05
4.32876e-05
-2.47299e-05
4.50415e-05
-2.39284e-05
4.67617e-05
-2.29346e-05
4.84592e-05
-2.17299e-05
5.01506e-05
-2.02751e-05
5.18478e-05
-1.85002e-05
5.35514e-05
-1.63142e-05
5.52487e-05
-1.36234e-05
5.69189e-05
-1.03534e-05
5.8543e-05
-6.46445e-06
6.01139e-05
-1.95278e-06
6.1641e-05
3.1594e-06
6.31514e-05
8.83232e-06
6.46895e-05
1.50125e-05
6.63164e-05
2.16327e-05
6.81096e-05
2.86078e-05
7.01618e-05
3.58254e-05
7.25772e-05
4.31369e-05
7.54693e-05
5.03444e-05
5.72027e-05
2.4605e-06
-1.96499e-05
4.27329e-06
-2.5442e-05
5.74493e-06
-2.63231e-05
7.08575e-06
-2.64942e-05
8.38781e-06
-2.65441e-05
9.70692e-06
-2.66115e-05
1.10771e-05
-2.67308e-05
1.25155e-05
-2.68995e-05
1.40277e-05
-2.7104e-05
1.56117e-05
-2.7329e-05
1.72618e-05
-2.7561e-05
1.897e-05
-2.77886e-05
2.07277e-05
-2.80021e-05
2.25262e-05
-2.81935e-05
2.43565e-05
-2.83546e-05
2.62101e-05
-2.84782e-05
2.80787e-05
-2.8558e-05
2.99556e-05
-2.85882e-05
3.18346e-05
-2.85619e-05
3.37104e-05
-2.84701e-05
3.5578e-05
-2.8301e-05
3.74329e-05
-2.80409e-05
3.9271e-05
-2.76725e-05
4.1087e-05
-2.71734e-05
4.28729e-05
-2.65159e-05
4.462e-05
-2.56756e-05
4.63279e-05
-2.46425e-05
4.80134e-05
-2.34153e-05
4.97042e-05
-2.19659e-05
5.14231e-05
-2.02191e-05
5.31781e-05
-1.80691e-05
5.49575e-05
-1.54029e-05
5.67369e-05
-1.21327e-05
5.84922e-05
-8.21972e-06
6.02132e-05
-3.67381e-06
6.19101e-05
1.46251e-06
6.36128e-05
7.12964e-06
6.53683e-05
1.32569e-05
6.72391e-05
1.97619e-05
6.93006e-05
2.65463e-05
7.16371e-05
3.34889e-05
7.43323e-05
4.04416e-05
7.74616e-05
4.72151e-05
5.3579e-05
2.40244e-06
-2.20524e-05
4.28623e-06
-2.73258e-05
5.82466e-06
-2.78616e-05
7.17493e-06
-2.78445e-05
8.44372e-06
-2.78129e-05
9.7103e-06
-2.78781e-05
1.10238e-05
-2.80443e-05
1.24083e-05
-2.82841e-05
1.38717e-05
-2.85674e-05
1.54126e-05
-2.88699e-05
1.7025e-05
-2.91734e-05
1.87006e-05
-2.94641e-05
2.04301e-05
-2.97316e-05
2.22044e-05
-2.99678e-05
2.40143e-05
-3.01644e-05
2.58501e-05
-3.03141e-05
2.7703e-05
-3.04109e-05
2.95653e-05
-3.04505e-05
3.14307e-05
-3.04273e-05
3.32935e-05
-3.03329e-05
3.51483e-05
-3.01558e-05
3.69906e-05
-2.98832e-05
3.88169e-05
-2.94989e-05
4.06227e-05
-2.89792e-05
4.23978e-05
-2.8291e-05
4.41272e-05
-2.74049e-05
4.58053e-05
-2.63206e-05
4.74545e-05
-2.50645e-05
4.91159e-05
-2.36274e-05
5.08251e-05
-2.19283e-05
5.25999e-05
-1.98439e-05
5.4431e-05
-1.72341e-05
5.62892e-05
-1.39909e-05
5.81437e-05
-1.00742e-05
5.99802e-05
-5.51038e-06
6.18086e-05
-3.65906e-07
6.36603e-05
5.27797e-06
6.55825e-05
1.13347e-05
6.76357e-05
1.77087e-05
6.98898e-05
2.42923e-05
7.24194e-05
3.09593e-05
7.52875e-05
3.75736e-05
7.85357e-05
4.39668e-05
4.99385e-05
2.34953e-06
-2.44019e-05
4.44321e-06
-2.94194e-05
6.10429e-06
-2.95227e-05
7.46068e-06
-2.92009e-05
8.67427e-06
-2.90265e-05
9.86708e-06
-2.90709e-05
1.1108e-05
-2.92852e-05
1.24271e-05
-2.96032e-05
1.38327e-05
-2.9973e-05
1.53225e-05
-3.03596e-05
1.68893e-05
-3.07402e-05
1.85239e-05
-3.10987e-05
2.02165e-05
-3.14242e-05
2.19578e-05
-3.17091e-05
2.37379e-05
-3.19445e-05
2.55465e-05
-3.21227e-05
2.73738e-05
-3.22382e-05
2.92114e-05
-3.22882e-05
3.10529e-05
-3.22687e-05
3.28922e-05
-3.21722e-05
3.47231e-05
-3.19867e-05
3.65408e-05
-3.17009e-05
3.83432e-05
-3.13012e-05
4.0128e-05
-3.0764e-05
4.18838e-05
-3.00467e-05
4.35869e-05
-2.91081e-05
4.52223e-05
-2.7956e-05
4.68156e-05
-2.66578e-05
4.8421e-05
-2.52328e-05
5.00853e-05
-2.35926e-05
5.18396e-05
-2.15982e-05
5.36804e-05
-1.90749e-05
5.55751e-05
-1.58855e-05
5.74863e-05
-1.19854e-05
5.9396e-05
-7.4201e-06
6.13135e-05
-2.28335e-06
6.32705e-05
3.32089e-06
6.53121e-05
9.29316e-06
6.74933e-05
1.55275e-05
6.98756e-05
2.191e-05
7.25262e-05
2.83086e-05
7.54895e-05
3.46103e-05
7.87814e-05
4.06749e-05
4.63338e-05
2.36246e-06
-2.67644e-05
4.83812e-06
-3.18951e-05
6.64603e-06
-3.13306e-05
7.96954e-06
-3.05244e-05
9.0875e-06
-3.01445e-05
1.01816e-05
-3.0165e-05
1.1338e-05
-3.04416e-05
1.25866e-05
-3.08517e-05
1.39314e-05
-3.13178e-05
1.5367e-05
-3.17952e-05
1.68841e-05
-3.22574e-05
1.84723e-05
-3.26869e-05
2.01208e-05
-3.30727e-05
2.18204e-05
-3.34087e-05
2.35612e-05
-3.36853e-05
2.53323e-05
-3.38938e-05
2.71229e-05
-3.40288e-05
2.89244e-05
-3.40897e-05
3.07302e-05
-3.40745e-05
3.2534e-05
-3.3976e-05
3.43282e-05
-3.3781e-05
3.6107e-05
-3.34797e-05
3.7869e-05
-3.30632e-05
3.96157e-05
-3.25107e-05
4.13381e-05
-3.17691e-05
4.30078e-05
-3.07778e-05
4.46001e-05
-2.95483e-05
4.61407e-05
-2.81983e-05
4.76835e-05
-2.67756e-05
4.92735e-05
-2.51825e-05
5.09567e-05
-2.32815e-05
5.27458e-05
-2.0864e-05
5.46138e-05
-1.77535e-05
5.65228e-05
-1.38944e-05
5.8454e-05
-9.35131e-06
6.04164e-05
-4.24572e-06
6.24409e-05
1.29636e-06
6.45646e-05
7.16941e-06
6.68326e-05
1.32595e-05
6.92936e-05
1.9449e-05
7.20138e-05
2.55884e-05
7.50202e-05
3.16039e-05
7.83095e-05
3.73856e-05
4.27893e-05
2.54388e-06
-2.93082e-05
5.5634e-06
-3.49146e-05
7.43689e-06
-3.32041e-05
8.6298e-06
-3.17173e-05
9.60356e-06
-3.11182e-05
1.05904e-05
-3.11519e-05
1.16721e-05
-3.15233e-05
1.2864e-05
-3.20437e-05
1.41602e-05
-3.2614e-05
1.55498e-05
-3.31848e-05
1.70217e-05
-3.37292e-05
1.8564e-05
-3.42293e-05
2.01654e-05
-3.46741e-05
2.18172e-05
-3.50605e-05
2.35095e-05
-3.53776e-05
2.52319e-05
-3.56162e-05
2.69739e-05
-3.57707e-05
2.87271e-05
-3.58429e-05
3.04845e-05
-3.58319e-05
3.22394e-05
-3.57309e-05
3.39831e-05
-3.55247e-05
3.57083e-05
-3.52049e-05
3.74104e-05
-3.47653e-05
3.90908e-05
-3.41911e-05
4.07464e-05
-3.34247e-05
4.23637e-05
-3.23951e-05
4.39371e-05
-3.11218e-05
4.54833e-05
-2.97446e-05
4.70057e-05
-2.82979e-05
4.85145e-05
-2.66914e-05
5.00644e-05
-2.48313e-05
5.1706e-05
-2.25056e-05
5.34458e-05
-1.94933e-05
5.52669e-05
-1.57156e-05
5.71601e-05
-1.12445e-05
5.91317e-05
-6.21732e-06
6.12059e-05
-7.77882e-07
6.33972e-05
4.97811e-06
6.57309e-05
1.09259e-05
6.8236e-05
1.69439e-05
7.09945e-05
2.28299e-05
7.40108e-05
2.85876e-05
7.72671e-05
3.41294e-05
3.93194e-05
3.35375e-06
-3.2662e-05
6.71339e-06
-3.82743e-05
8.25018e-06
-3.47409e-05
9.16898e-06
-3.26361e-05
1.001e-05
-3.19592e-05
1.0951e-05
-3.20929e-05
1.20184e-05
-3.25908e-05
1.31994e-05
-3.32246e-05
1.44791e-05
-3.38937e-05
1.58451e-05
-3.45508e-05
1.72858e-05
-3.51699e-05
1.87904e-05
-3.57339e-05
2.03482e-05
-3.62319e-05
2.195e-05
-3.66623e-05
2.35862e-05
-3.70138e-05
2.52487e-05
-3.72788e-05
2.69303e-05
-3.74523e-05
2.86236e-05
-3.75362e-05
3.03198e-05
-3.75281e-05
3.20098e-05
-3.74209e-05
3.36876e-05
-3.72025e-05
3.53476e-05
-3.68648e-05
3.6977e-05
-3.63948e-05
3.8555e-05
-3.57691e-05
4.00855e-05
-3.49552e-05
4.16201e-05
-3.39296e-05
4.32276e-05
-3.27293e-05
4.48858e-05
-3.14028e-05
4.64795e-05
-2.98916e-05
4.79494e-05
-2.81612e-05
4.93038e-05
-2.61857e-05
5.06531e-05
-2.38549e-05
5.21026e-05
-2.09428e-05
5.37113e-05
-1.73243e-05
5.55036e-05
-1.30368e-05
5.74814e-05
-8.19514e-06
5.9639e-05
-2.93543e-06
6.19453e-05
2.67176e-06
6.43658e-05
8.50541e-06
6.69029e-05
1.44068e-05
6.96825e-05
2.00503e-05
7.26766e-05
2.55935e-05
7.58663e-05
3.09396e-05
7.92435e-05
3.59422e-05
4.05777e-05
6.21931e-06
-3.88813e-05
8.2449e-06
-4.02999e-05
8.57445e-06
-3.50704e-05
9.257e-06
-3.33186e-05
1.01739e-05
-3.28761e-05
1.12332e-05
-3.31522e-05
1.23818e-05
-3.37393e-05
1.36052e-05
-3.44481e-05
1.49001e-05
-3.51886e-05
1.62619e-05
-3.59126e-05
1.76837e-05
-3.65916e-05
1.91588e-05
-3.72091e-05
2.06801e-05
-3.77532e-05
2.22356e-05
-3.82178e-05
2.38167e-05
-3.85949e-05
2.542e-05
-3.88821e-05
2.70453e-05
-3.90777e-05
2.86852e-05
-3.91761e-05
3.03265e-05
-3.91693e-05
3.1955e-05
-3.90494e-05
3.3571e-05
-3.88186e-05
3.51717e-05
-3.84655e-05
3.67307e-05
-3.79538e-05
3.81876e-05
-3.7226e-05
3.96531e-05
-3.64207e-05
4.1127e-05
-3.54035e-05
4.27293e-05
-3.43317e-05
4.43752e-05
-3.30486e-05
4.58996e-05
-3.1416e-05
4.72611e-05
-2.95227e-05
4.83768e-05
-2.73014e-05
4.93454e-05
-2.48235e-05
5.04292e-05
-2.20266e-05
5.17842e-05
-1.86793e-05
5.34969e-05
-1.47494e-05
5.55712e-05
-1.02695e-05
5.7917e-05
-5.28122e-06
6.03736e-05
2.15227e-07
6.29626e-05
5.91637e-06
6.56473e-05
1.17221e-05
6.84647e-05
1.72329e-05
7.13784e-05
2.26798e-05
7.44355e-05
2.78825e-05
7.76736e-05
3.27041e-05
3.72277e-05
1.34296e-05
-5.23109e-05
9.19464e-06
-3.60649e-05
7.56595e-06
-3.34417e-05
8.66636e-06
-3.4419e-05
1.02385e-05
-3.44483e-05
1.16303e-05
-3.45439e-05
1.2919e-05
-3.50281e-05
1.41964e-05
-3.57255e-05
1.55056e-05
-3.64978e-05
1.68608e-05
-3.72678e-05
1.82625e-05
-3.79934e-05
1.97106e-05
-3.86571e-05
2.11997e-05
-3.92423e-05
2.27172e-05
-3.97353e-05
2.42565e-05
-4.01342e-05
2.58191e-05
-4.04446e-05
2.74063e-05
-4.06649e-05
2.90108e-05
-4.07806e-05
3.06184e-05
-4.07769e-05
3.22249e-05
-4.06559e-05
3.38435e-05
-4.04372e-05
3.54945e-05
-4.01165e-05
3.72173e-05
-3.96767e-05
3.91394e-05
-3.9148e-05
4.15603e-05
-3.88416e-05
4.37926e-05
-3.76359e-05
4.58292e-05
-3.63683e-05
4.74407e-05
-3.466e-05
4.84869e-05
-3.24623e-05
4.87505e-05
-2.97864e-05
4.82839e-05
-2.68348e-05
4.80673e-05
-2.46069e-05
4.84567e-05
-2.2416e-05
4.93108e-05
-1.95334e-05
5.06802e-05
-1.61188e-05
5.2739e-05
-1.23283e-05
5.5412e-05
-7.95422e-06
5.82942e-05
-2.66702e-06
6.17092e-05
2.50134e-06
6.5067e-05
8.36437e-06
6.77837e-05
1.45163e-05
7.05465e-05
1.99169e-05
7.34475e-05
2.49816e-05
7.64684e-05
2.96832e-05
3.41315e-05
1.13318e-05
-6.36427e-05
7.28893e-06
-3.2022e-05
6.22244e-06
-3.23752e-05
7.21094e-06
-3.54075e-05
9.1038e-06
-3.63412e-05
1.12216e-05
-3.66617e-05
1.32828e-05
-3.70893e-05
1.52431e-05
-3.76858e-05
1.71194e-05
-3.83741e-05
1.89362e-05
-3.90846e-05
2.07171e-05
-3.97742e-05
2.2479e-05
-4.04191e-05
2.42368e-05
-4.10001e-05
2.60024e-05
-4.15009e-05
2.77878e-05
-4.19195e-05
2.95911e-05
-4.2248e-05
3.14131e-05
-4.24868e-05
3.32572e-05
-4.26248e-05
3.51287e-05
-4.26484e-05
3.7026e-05
-4.25533e-05
3.89374e-05
-4.23486e-05
4.085e-05
-4.2029e-05
4.27581e-05
-4.15849e-05
4.46434e-05
-4.10333e-05
4.62408e-05
-4.0439e-05
4.79821e-05
-3.93772e-05
4.96066e-05
-3.79929e-05
5.10269e-05
-3.60803e-05
5.2199e-05
-3.36343e-05
5.31869e-05
-3.07743e-05
5.42007e-05
-2.78486e-05
5.49405e-05
-2.53467e-05
5.54038e-05
-2.28792e-05
5.58035e-05
-1.99332e-05
5.60469e-05
-1.63622e-05
5.58651e-05
-1.21465e-05
5.51574e-05
-7.2466e-06
5.58028e-05
-3.31236e-06
5.89655e-05
-6.61432e-07
6.35467e-05
3.78319e-06
6.69078e-05
1.11552e-05
7.04551e-05
1.63696e-05
7.337e-05
2.20667e-05
7.60647e-05
2.69884e-05
3.13619e-05
-6.03438e-06
-5.76083e-05
-7.92739e-07
-3.72636e-05
3.37643e-06
-3.65444e-05
6.38161e-06
-3.84127e-05
9.21064e-06
-3.91702e-05
1.19288e-05
-3.93798e-05
1.44849e-05
-3.96455e-05
1.68649e-05
-4.00657e-05
1.90905e-05
-4.05997e-05
2.11973e-05
-4.11914e-05
2.32199e-05
-4.17969e-05
2.51872e-05
-4.23864e-05
2.71231e-05
-4.2936e-05
2.90487e-05
-4.34265e-05
3.09769e-05
-4.38477e-05
3.29166e-05
-4.41877e-05
3.48715e-05
-4.44418e-05
3.68451e-05
-4.45985e-05
3.88395e-05
-4.46428e-05
4.08503e-05
-4.45641e-05
4.28617e-05
-4.436e-05
4.48533e-05
-4.40206e-05
4.67991e-05
-4.35306e-05
4.86562e-05
-4.28904e-05
5.03022e-05
-4.2085e-05
5.18982e-05
-4.09732e-05
5.33856e-05
-3.94803e-05
5.4781e-05
-3.74757e-05
5.61227e-05
-3.49759e-05
5.74805e-05
-3.21321e-05
5.88478e-05
-2.92159e-05
5.99738e-05
-2.64727e-05
6.07802e-05
-2.36856e-05
6.13666e-05
-2.05197e-05
6.18219e-05
-1.68174e-05
6.2224e-05
-1.25486e-05
6.30891e-05
-8.11174e-06
6.42418e-05
-4.46499e-06
6.49715e-05
-1.39119e-06
6.5207e-05
3.54772e-06
6.52728e-05
1.10894e-05
6.9229e-05
1.24134e-05
7.29779e-05
1.83179e-05
7.63502e-05
2.36161e-05
2.8543e-05
-8.29271e-06
-4.93156e-05
-2.21263e-06
-4.33437e-05
3.08246e-06
-4.18395e-05
6.93232e-06
-4.22626e-05
1.0221e-05
-4.24589e-05
1.3286e-05
-4.24448e-05
1.61399e-05
-4.24993e-05
1.87826e-05
-4.27084e-05
2.12388e-05
-4.30559e-05
2.35451e-05
-4.34978e-05
2.57392e-05
-4.3991e-05
2.78536e-05
-4.45007e-05
2.99157e-05
-4.49981e-05
3.19487e-05
-4.54596e-05
3.39685e-05
-4.58675e-05
3.59869e-05
-4.6206e-05
3.80087e-05
-4.64636e-05
4.00361e-05
-4.66259e-05
4.20693e-05
-4.6676e-05
4.41032e-05
-4.6598e-05
4.6124e-05
-4.63808e-05
4.81128e-05
-4.60094e-05
5.00477e-05
-4.54656e-05
5.18951e-05
-4.47378e-05
5.36093e-05
-4.37992e-05
5.52101e-05
-4.2574e-05
5.67032e-05
-4.09734e-05
5.81452e-05
-3.89176e-05
5.9603e-05
-3.64337e-05
6.11176e-05
-3.36467e-05
6.26437e-05
-3.0742e-05
6.40144e-05
-2.78434e-05
6.51658e-05
-2.4837e-05
6.61714e-05
-2.15252e-05
6.71434e-05
-1.77895e-05
6.82389e-05
-1.36441e-05
6.95341e-05
-9.40693e-06
7.05952e-05
-5.52615e-06
7.08036e-05
-1.5996e-06
7.07676e-05
3.58372e-06
7.24719e-05
9.38505e-06
7.22646e-05
1.26207e-05
7.24044e-05
1.81781e-05
7.55259e-05
2.04945e-05
2.48347e-05
-4.00283e-06
-4.53127e-05
-3.92605e-07
-4.69539e-05
4.20317e-06
-4.64353e-05
8.15671e-06
-4.62162e-05
1.16542e-05
-4.59563e-05
1.48809e-05
-4.56716e-05
1.78795e-05
-4.5498e-05
2.06656e-05
-4.54945e-05
2.32624e-05
-4.56527e-05
2.57016e-05
-4.5937e-05
2.80168e-05
-4.63062e-05
3.02388e-05
-4.67227e-05
3.23941e-05
-4.71534e-05
3.45048e-05
-4.75703e-05
3.65873e-05
-4.795e-05
3.8653e-05
-4.82717e-05
4.07074e-05
-4.8518e-05
4.2752e-05
-4.86705e-05
4.47856e-05
-4.87096e-05
4.68035e-05
-4.86159e-05
4.87952e-05
-4.83725e-05
5.07471e-05
-4.79613e-05
5.26431e-05
-4.73616e-05
5.4459e-05
-4.65537e-05
5.61712e-05
-4.55114e-05
5.77764e-05
-4.41792e-05
5.92986e-05
-4.24956e-05
6.07963e-05
-4.04153e-05
6.23284e-05
-3.79658e-05
6.39214e-05
-3.52397e-05
6.5536e-05
-3.23567e-05
6.70801e-05
-2.93875e-05
6.85168e-05
-2.62738e-05
6.98925e-05
-2.2901e-05
7.12916e-05
-1.91886e-05
7.27982e-05
-1.51507e-05
7.43455e-05
-1.09543e-05
7.55887e-05
-6.76935e-06
7.63036e-05
-2.31459e-06
7.70178e-05
2.86954e-06
7.81993e-05
8.20361e-06
7.82897e-05
1.25303e-05
7.91569e-05
1.73109e-05
7.92147e-05
2.04367e-05
2.45442e-05
-1.27014e-06
-4.40426e-05
1.76136e-06
-4.99854e-05
5.77505e-06
-5.0449e-05
9.60683e-06
-5.00479e-05