/*--------------------------------*- C++ -*----------------------------------*\
| =========                 |                                                 |
| \\      /  F ield         | OpenFOAM: The Open Source CFD Toolbox           |
|  \\    /   O peration     | Version:  5.0                                   |
|   \\  /    A nd           | Web:      www.OpenFOAM.org                      |
|    \\/     M anipulation  |                                                 |
\*---------------------------------------------------------------------------*/
FoamFile
{
    version     2.0;
    format      ascii;
    class       volVectorField;
    location    "0.35";
    object      U;
}
// * * * * * * * * * * * * * * * * * * * * * * * * * * * * * * * * * * * * * //

dimensions      [0 1 -1 0 0 0 0];

internalField   nonuniform List<vector> 
1935
(
(-0.0403021 0.0199774 0)
(-0.062076 0.00430714 0)
(-0.0508081 -0.0124279 0)
(-0.0255031 -0.0184442 0)
(0.00760032 -0.0199414 0)
(0.0425517 -0.0195424 0)
(0.0765393 -0.018166 0)
(0.108608 -0.0165491 0)
(0.13844 -0.0150365 0)
(0.166192 -0.0137526 0)
(0.192245 -0.0127305 0)
(0.217011 -0.01196 0)
(0.240862 -0.0114093 0)
(0.264112 -0.0110387 0)
(0.287007 -0.0108092 0)
(0.309733 -0.0106848 0)
(0.332418 -0.010634 0)
(0.35514 -0.0106295 0)
(0.377934 -0.0106475 0)
(0.400797 -0.0106671 0)
(0.42369 -0.0106691 0)
(0.446538 -0.0106353 0)
(0.469234 -0.0105467 0)
(0.491628 -0.0103828 0)
(0.513529 -0.0101201 0)
(0.534689 -0.00973087 0)
(0.554799 -0.00918088 0)
(0.573465 -0.00842689 0)
(0.590189 -0.00741123 0)
(0.604333 -0.00604901 0)
(0.61501 -0.00419806 0)
(0.621282 -0.00148134 0)
(0.620892 0.00250048 0)
(0.610808 0.00796088 0)
(0.58891 0.0149386 0)
(0.552899 0.0233803 0)
(0.500424 0.0330453 0)
(0.429657 0.0432413 0)
(0.340165 0.0525907 0)
(0.233997 0.0590571 0)
(0.115828 0.0607373 0)
(-0.00169851 0.0595872 0)
(-0.133963 0.0504232 0)
(-0.245914 0.000635267 0)
(-0.0291597 0.0491524 0)
(-0.0227015 0.00800149 0)
(-0.00812327 -0.0199533 0)
(0.0158079 -0.0335292 0)
(0.0448071 -0.0385489 0)
(0.0754852 -0.039156 0)
(0.10602 -0.0376622 0)
(0.135574 -0.0354407 0)
(0.163867 -0.0331946 0)
(0.19094 -0.0312402 0)
(0.216988 -0.0296897 0)
(0.242248 -0.0285482 0)
(0.266947 -0.0277695 0)
(0.291278 -0.0272874 0)
(0.315395 -0.0270329 0)
(0.339412 -0.0269413 0)
(0.363404 -0.0269546 0)
(0.387409 -0.0270217 0)
(0.411437 -0.0270975 0)
(0.435464 -0.0271409 0)
(0.45944 -0.0271128 0)
(0.483285 -0.0269737 0)
(0.506887 -0.0266812 0)
(0.530096 -0.0261877 0)
(0.552723 -0.0254373 0)
(0.574528 -0.0243629 0)
(0.595212 -0.0228817 0)
(0.614403 -0.0208897 0)
(0.631639 -0.0182518 0)
(0.646358 -0.0147829 0)
(0.657892 -0.0102184 0)
(0.665395 -0.00411688 0)
(0.668594 0.00405116 0)
(0.666912 0.0147095 0)
(0.658615 0.0281281 0)
(0.641535 0.0445167 0)
(0.613012 0.0638427 0)
(0.569845 0.0854427 0)
(0.508461 0.107561 0)
(0.425765 0.127058 0)
(0.320671 0.139705 0)
(0.200304 0.14298 0)
(0.0731037 0.132105 0)
(-0.0385621 0.079163 0)
(-0.00705547 0.0586931 0)
(0.00370175 -0.00151418 0)
(0.0202099 -0.0354635 0)
(0.0432339 -0.0523996 0)
(0.069687 -0.0591157 0)
(0.0974771 -0.0601706 0)
(0.125416 -0.0584603 0)
(0.152925 -0.0557137 0)
(0.179789 -0.0528613 0)
(0.205995 -0.0503438 0)
(0.231629 -0.0483277 0)
(0.256816 -0.0468328 0)
(0.281681 -0.0458068 0)
(0.306335 -0.0451678 0)
(0.330869 -0.0448267 0)
(0.355347 -0.0446978 0)
(0.379809 -0.0447026 0)
(0.404271 -0.0447706 0)
(0.428726 -0.0448376 0)
(0.45314 -0.0448436 0)
(0.477457 -0.0447296 0)
(0.501595 -0.0444348 0)
(0.525439 -0.0438931 0)
(0.548845 -0.0430292 0)
(0.571629 -0.0417553 0)
(0.593559 -0.0399656 0)
(0.614351 -0.0375314 0)
(0.633655 -0.0342934 0)
(0.651046 -0.0300526 0)
(0.666012 -0.0245582 0)
(0.677956 -0.0174921 0)
(0.686166 -0.0084708 0)
(0.689969 0.00302703 0)
(0.688713 0.0176367 0)
(0.681518 0.0359723 0)
(0.667319 0.0585402 0)
(0.644861 0.0855939 0)
(0.612647 0.116773 0)
(0.568782 0.15051 0)
(0.510874 0.183355 0)
(0.436296 0.209509 0)
(0.345383 0.221834 0)
(0.243643 0.209286 0)
(0.141529 0.146929 0)
(0.00614922 0.0517207 0)
(0.0194552 -0.0117423 0)
(0.0391794 -0.0512756 0)
(0.0628293 -0.071131 0)
(0.0881649 -0.0790958 0)
(0.114162 -0.0804912 0)
(0.140271 -0.0786729 0)
(0.166225 -0.0756225 0)
(0.191923 -0.0724122 0)
(0.217351 -0.0695587 0)
(0.242539 -0.0672624 0)
(0.267538 -0.0655534 0)
(0.292403 -0.0643771 0)
(0.317186 -0.0636424 0)
(0.341928 -0.0632478 0)
(0.366658 -0.0630933 0)
(0.391388 -0.0630856 0)
(0.416114 -0.0631391 0)
(0.440817 -0.0631738 0)
(0.465455 -0.0631131 0)
(0.489967 -0.0628801 0)
(0.514269 -0.0623943 0)
(0.53825 -0.0615669 0)
(0.561768 -0.0602969 0)
(0.584647 -0.0584656 0)
(0.606666 -0.0559315 0)
(0.627557 -0.0525233 0)
(0.646995 -0.0480321 0)
(0.664586 -0.0422028 0)
(0.679866 -0.0347239 0)
(0.692295 -0.025219 0)
(0.701252 -0.0132441 0)
(0.706076 0.00174788 0)
(0.706122 0.0203971 0)
(0.700703 0.0433624 0)
(0.68912 0.0712097 0)
(0.670666 0.104271 0)
(0.644608 0.142342 0)
(0.610066 0.184156 0)
(0.565758 0.22662 0)
(0.50967 0.263839 0)
(0.439796 0.2865 0)
(0.355702 0.279607 0)
(0.258694 0.219068 0)
(0.00974483 0.0391559 0)
(0.0277018 -0.0268974 0)
(0.0514124 -0.0689152 0)
(0.0764288 -0.0899845 0)
(0.10148 -0.0983622 0)
(0.126444 -0.0998292 0)
(0.151334 -0.0979576 0)
(0.17618 -0.0948099 0)
(0.201005 -0.0914924 0)
(0.22582 -0.0885396 0)
(0.250634 -0.0861618 0)
(0.275452 -0.0843937 0)
(0.300286 -0.0831808 0)
(0.325142 -0.0824291 0)
(0.350028 -0.0820311 0)
(0.374942 -0.0818791 0)
(0.399874 -0.0818702 0)
(0.424807 -0.0819081 0)
(0.449707 -0.0819007 0)
(0.474527 -0.0817577 0)
(0.499202 -0.0813871 0)
(0.523649 -0.0806903 0)
(0.547759 -0.0795581 0)
(0.571397 -0.0778656 0)
(0.594394 -0.0754662 0)
(0.616544 -0.0721855 0)
(0.637599 -0.0678138 0)
(0.657257 -0.0620985 0)
(0.675159 -0.0547351 0)
(0.690883 -0.0453604 0)
(0.703945 -0.0335473 0)
(0.713799 -0.0188055 0)
(0.719849 -0.000568887 0)
(0.721519 0.0218009 0)
(0.718234 0.0489516 0)
(0.709462 0.0814295 0)
(0.694725 0.119543 0)
(0.673564 0.163111 0)
(0.64543 0.211027 0)
(0.609424 0.260591 0)
(0.563857 0.30647 0)
(0.506005 0.33938 0)
(0.432091 0.343816 0)
(0.337523 0.296442 0)
(0.0103449 0.024999 0)
(0.0324752 -0.0454701 0)
(0.0593336 -0.0883582 0)
(0.0855613 -0.109202 0)
(0.110545 -0.117191 0)
(0.13485 -0.118415 0)
(0.158914 -0.116459 0)
(0.182986 -0.113325 0)
(0.207187 -0.110062 0)
(0.231555 -0.107176 0)
(0.25609 -0.104864 0)
(0.280775 -0.103156 0)
(0.30559 -0.101997 0)
(0.330513 -0.101293 0)
(0.355524 -0.100935 0)
(0.3806 -0.100811 0)
(0.405714 -0.100812 0)
(0.430833 -0.100837 0)
(0.455916 -0.100783 0)
(0.48091 -0.100549 0)
(0.505749 -0.100031 0)
(0.530349 -0.0991152 0)
(0.554606 -0.0976735 0)
(0.578393 -0.0955598 0)
(0.601553 -0.0926025 0)
(0.623894 -0.088598 0)
(0.645189 -0.0833029 0)
(0.665164 -0.0764258 0)
(0.683494 -0.0676196 0)
(0.699801 -0.0564768 0)
(0.71365 -0.042528 0)
(0.724559 -0.025247 0)
(0.732007 -0.00405295 0)
(0.735487 0.0216831 0)
(0.734509 0.0525774 0)
(0.728637 0.0891376 0)
(0.717488 0.131642 0)
(0.700689 0.17993 0)
(0.677752 0.23306 0)
(0.647812 0.288745 0)
(0.609171 0.34242 0)
(0.558683 0.385801 0)
(0.490778 0.404675 0)
(0.396904 0.377462 0)
(0.0112516 0.00932807 0)
(0.0360961 -0.0664653 0)
(0.0647628 -0.109076 0)
(0.0915212 -0.128667 0)
(0.116249 -0.135718 0)
(0.139982 -0.136488 0)
(0.163415 -0.134427 0)
(0.186919 -0.131374 0)
(0.210667 -0.128272 0)
(0.234714 -0.125565 0)
(0.259052 -0.12342 0)
(0.283651 -0.121859 0)
(0.308469 -0.120823 0)
(0.333464 -0.120217 0)
(0.358595 -0.119932 0)
(0.383823 -0.119856 0)
(0.409107 -0.119879 0)
(0.434403 -0.119892 0)
(0.459663 -0.119789 0)
(0.484831 -0.119461 0)
(0.509838 -0.118791 0)
(0.534605 -0.117654 0)
(0.559031 -0.115905 0)
(0.582999 -0.113381 0)
(0.606363 -0.109887 0)
(0.628952 -0.105195 0)
(0.650559 -0.0990318 0)
(0.670939 -0.0910719 0)
(0.689804 -0.0809314 0)
(0.706818 -0.0681641 0)
(0.721596 -0.0522647 0)
(0.733712 -0.0326785 0)
(0.742708 -0.0088137 0)
(0.748143 0.0199451 0)
(0.749596 0.0541833 0)
(0.746693 0.0943723 0)
(0.739102 0.140774 0)
(0.726477 0.193278 0)
(0.708321 0.251142 0)
(0.683724 0.312547 0)
(0.650896 0.373821 0)
(0.606374 0.428142 0)
(0.543556 0.46356 0)
(0.451129 0.46141 0)
(0.0126491 -0.0079313 0)
(0.0392696 -0.0889321 0)
(0.0686266 -0.130302 0)
(0.0951763 -0.148003 0)
(0.119332 -0.153853 0)
(0.142438 -0.154111 0)
(0.165303 -0.151979 0)
(0.18834 -0.149081 0)
(0.211733 -0.146226 0)
(0.235533 -0.143783 0)
(0.259726 -0.141885 0)
(0.284267 -0.140537 0)
(0.3091 -0.139677 0)
(0.334165 -0.139209 0)
(0.359408 -0.139026 0)
(0.384776 -0.139016 0)
(0.410217 -0.139069 0)
(0.435678 -0.139076 0)
(0.461107 -0.138924 0)
(0.486443 -0.138499 0)
(0.51162 -0.137678 0)
(0.536559 -0.136322 0)
(0.561169 -0.134276 0)
(0.585338 -0.131359 0)
(0.608939 -0.127358 0)
(0.631816 -0.122024 0)
(0.653788 -0.115058 0)
(0.674643 -0.106106 0)
(0.69413 -0.094753 0)
(0.711954 -0.0805167 0)
(0.727779 -0.0628604 0)
(0.741229 -0.0412058 0)
(0.751902 -0.0149533 0)
(0.759412 0.0164986 0)
(0.763401 0.0537067 0)
(0.763545 0.0971133 0)
(0.759558 0.146977 0)
(0.751128 0.203258 0)
(0.737783 0.265435 0)
(0.718631 0.332188 0)
(0.691901 0.400813 0)
(0.654063 0.466234 0)
(0.598087 0.519468 0)
(0.51052 0.546114 0)
(0.0143487 -0.0268287 0)
(0.0421214 -0.112142 0)
(0.071307 -0.151377 0)
(0.0970512 -0.166841 0)
(0.120359 -0.17145 0)
(0.14275 -0.171263 0)
(0.165049 -0.169149 0)
(0.187653 -0.166496 0)
(0.210727 -0.16397 0)
(0.234311 -0.161867 0)
(0.258376 -0.160281 0)
(0.282863 -0.159201 0)
(0.307703 -0.158561 0)
(0.332824 -0.158265 0)
(0.35816 -0.158208 0)
(0.383645 -0.158281 0)
(0.409221 -0.158375 0)
(0.434827 -0.158379 0)
(0.460406 -0.158182 0)
(0.485896 -0.157663 0)
(0.511232 -0.156693 0)
(0.536339 -0.155127 0)
(0.561132 -0.152796 0)
(0.58551 -0.149509 0)
(0.609359 -0.145037 0)
(0.632545 -0.139114 0)
(0.654912 -0.13142 0)
(0.676282 -0.12158 0)
(0.696444 -0.109147 0)
(0.715151 -0.0936087 0)
(0.732108 -0.0743983 0)
(0.746988 -0.0509158 0)
(0.759438 -0.0225562 0)
(0.769116 0.0112672 0)
(0.775724 0.0510824 0)
(0.77899 0.0973052 0)
(0.778688 0.150191 0)
(0.77458 0.20977 0)
(0.766294 0.275731 0)
(0.753098 0.347226 0)
(0.733492 0.422507 0)
(0.704346 0.498332 0)
(0.65913 0.56913 0)
(0.583344 0.626454 0)
(0.0162147 -0.0473748 0)
(0.0445846 -0.135544 0)
(0.072939 -0.171812 0)
(0.0974754 -0.184913 0)
(0.119763 -0.188396 0)
(0.141378 -0.187909 0)
(0.163096 -0.185937 0)
(0.185266 -0.183628 0)
(0.208023 -0.181515 0)
(0.231385 -0.179819 0)
(0.255308 -0.178604 0)
(0.27972 -0.177841 0)
(0.30454 -0.17746 0)
(0.329686 -0.177367 0)
(0.35508 -0.177459 0)
(0.380649 -0.177631 0)
(0.406324 -0.177775 0)
(0.432043 -0.177784 0)
(0.457743 -0.177546 0)
(0.483361 -0.176938 0)
(0.508833 -0.175826 0)
(0.534088 -0.17406 0)
(0.559047 -0.171463 0)
(0.583621 -0.167832 0)
(0.607708 -0.162929 0)
(0.631195 -0.156474 0)
(0.653955 -0.148134 0)
(0.675844 -0.137515 0)
(0.696699 -0.124146 0)
(0.716317 -0.107485 0)
(0.734453 -0.0869333 0)
(0.75082 -0.0618689 0)
(0.765108 -0.0316821 0)
(0.777011 0.00419567 0)
(0.786288 0.0462596 0)
(0.792722 0.094892 0)
(0.796171 0.150332 0)
(0.796511 0.212649 0)
(0.793558 0.281688 0)
(0.786899 0.356969 0)
(0.775599 0.437531 0)
(0.757544 0.521726 0)
(0.728095 0.607217 0)
(0.674582 0.692455 0)
(0.0181212 -0.0696925 0)
(0.0465517 -0.158887 0)
(0.0735818 -0.191453 0)
(0.0966927 -0.202221 0)
(0.117893 -0.204776 0)
(0.138712 -0.204172 0)
(0.159834 -0.20248 0)
(0.181552 -0.20062 0)
(0.203969 -0.199001 0)
(0.227077 -0.197783 0)
(0.250819 -0.196994 0)
(0.275113 -0.196596 0)
(0.299867 -0.196513 0)
(0.32499 -0.196654 0)
(0.350394 -0.196918 0)
(0.375999 -0.197205 0)
(0.401731 -0.197413 0)
(0.427518 -0.197435 0)
(0.453297 -0.197161 0)
(0.479004 -0.19647 0)
(0.504576 -0.195224 0)
(0.529945 -0.193269 0)
(0.555039 -0.190421 0)
(0.579777 -0.186472 0)
(0.604071 -0.181174 0)
(0.627826 -0.174242 0)
(0.650943 -0.165335 0)
(0.67332 -0.154047 0)
(0.694843 -0.139889 0)
(0.715366 -0.122286 0)
(0.73469 -0.100606 0)
(0.752569 -0.0742005 0)
(0.768726 -0.0424533 0)
(0.782887 -0.00481854 0)
(0.794853 0.0391561 0)
(0.804477 0.0898033 0)
(0.811706 0.147317 0)
(0.81657 0.211758 0)
(0.819126 0.28303 0)
(0.819385 0.360849 0)
(0.817186 0.444693 0)
(0.811934 0.533839 0)
(0.802337 0.627908 0)
(0.784162 0.729658 0)
(0.0199302 -0.093727 0)
(0.0478966 -0.181861 0)
(0.0732841 -0.210166 0)
(0.0949268 -0.21877 0)
(0.115072 -0.220647 0)
(0.135114 -0.220114 0)
(0.155636 -0.218837 0)
(0.176878 -0.217525 0)
(0.198912 -0.21648 0)
(0.221715 -0.215804 0)
(0.24522 -0.215499 0)
(0.269336 -0.215514 0)
(0.293962 -0.21577 0)
(0.318999 -0.216177 0)
(0.344353 -0.21664 0)
(0.369936 -0.217062 0)
(0.395666 -0.217347 0)
(0.421469 -0.217393 0)
(0.447276 -0.217093 0)
(0.473022 -0.216326 0)
(0.498646 -0.214955 0)
(0.524082 -0.212821 0)
(0.549262 -0.20974 0)
(0.574116 -0.205495 0)
(0.598563 -0.199837 0)
(0.622524 -0.192477 0)
(0.645928 -0.183078 0)
(0.668718 -0.171235 0)
(0.690839 -0.156443 0)
(0.712209 -0.138093 0)
(0.732684 -0.115513 0)
(0.752056 -0.0880164 0)
(0.77007 -0.0549782 0)
(0.786477 -0.0158789 0)
(0.801103 0.0296764 0)
(0.813871 0.0819458 0)
(0.824823 0.141043 0)
(0.834142 0.206956 0)
(0.842135 0.279544 0)
(0.849224 0.358515 0)
(0.855947 0.443389 0)
(0.863015 0.533528 0)
(0.871675 0.628562 0)
(0.883508 0.730236 0)
(0.021495 -0.119114 0)
(0.0485147 -0.204023 0)
(0.0721738 -0.227798 0)
(0.0924888 -0.234522 0)
(0.111702 -0.235972 0)
(0.131022 -0.235674 0)
(0.150947 -0.234919 0)
(0.17168 -0.234237 0)
(0.193277 -0.233832 0)
(0.215709 -0.233757 0)
(0.238904 -0.233988 0)
(0.262764 -0.234461 0)
(0.287186 -0.235095 0)
(0.312063 -0.235802 0)
(0.337294 -0.23649 0)
(0.362785 -0.237069 0)
(0.388446 -0.237447 0)
(0.414198 -0.23753 0)
(0.439968 -0.237213 0)
(0.465692 -0.236379 0)
(0.491305 -0.234892 0)
(0.516745 -0.232593 0)
(0.541949 -0.229293 0)
(0.566848 -0.224775 0)
(0.591371 -0.218785 0)
(0.615447 -0.211041 0)
(0.639027 -0.201222 0)
(0.6621 -0.188937 0)
(0.684685 -0.173676 0)
(0.706777 -0.154795 0)
(0.728298 -0.131564 0)
(0.749074 -0.103248 0)
(0.768866 -0.0692007 0)
(0.787428 -0.0289317 0)
(0.804599 0.0178784 0)
(0.820357 0.0713842 0)
(0.834828 0.131583 0)
(0.84833 0.198337 0)
(0.861371 0.271374 0)
(0.874666 0.350252 0)
(0.889185 0.434285 0)
(0.906251 0.522466 0)
(0.927838 0.613516 0)
(0.95668 0.706376 0)
(0.0226477 -0.14547 0)
(0.0483812 -0.225173 0)
(0.0705083 -0.244446 0)
(0.0897963 -0.249612 0)
(0.108258 -0.250832 0)
(0.126924 -0.250872 0)
(0.146243 -0.250707 0)
(0.166416 -0.25071 0)
(0.187502 -0.250999 0)
(0.209478 -0.251577 0)
(0.232271 -0.252393 0)
(0.255786 -0.253369 0)
(0.279914 -0.254423 0)
(0.304543 -0.255465 0)
(0.329567 -0.25641 0)
(0.354883 -0.257169 0)
(0.380396 -0.257659 0)
(0.40602 -0.257791 0)
(0.431679 -0.257469 0)
(0.457303 -0.256579 0)
(0.48283 -0.254986 0)
(0.508197 -0.252532 0)
(0.533343 -0.249027 0)
(0.558204 -0.244249 0)
(0.582706 -0.237946 0)
(0.606779 -0.229845 0)
(0.630383 -0.219658 0)
(0.653556 -0.207033 0)
(0.676404 -0.191472 0)
(0.699022 -0.17229 0)
(0.721409 -0.14868 0)
(0.743433 -0.11983 0)
(0.764853 -0.0850579 0)
(0.785407 -0.0439023 0)
(0.804923 0.00386137 0)
(0.823416 0.0582549 0)
(0.841076 0.119127 0)
(0.858322 0.186176 0)
(0.875798 0.258956 0)
(0.89438 0.336819 0)
(0.915211 0.418824 0)
(0.939728 0.5036 0)
(0.969754 0.589221 0)
(1.00759 0.67325 0)
(0.0231487 -0.172321 0)
(0.0476022 -0.245334 0)
(0.0687214 -0.260391 0)
(0.0874097 -0.264252 0)
(0.105318 -0.26532 0)
(0.123371 -0.265719 0)
(0.142043 -0.266163 0)
(0.161573 -0.266882 0)
(0.18205 -0.267906 0)
(0.203466 -0.269185 0)
(0.225755 -0.270635 0)
(0.24882 -0.272163 0)
(0.272552 -0.27368 0)
(0.296835 -0.275097 0)
(0.321556 -0.27633 0)
(0.346607 -0.277296 0)
(0.371882 -0.277918 0)
(0.397288 -0.278116 0)
(0.422746 -0.2778 0)
(0.448183 -0.276862 0)
(0.473533 -0.275172 0)
(0.498734 -0.272572 0)
(0.523728 -0.268872 0)
(0.548451 -0.263846 0)
(0.572826 -0.257234 0)
(0.596762 -0.248778 0)
(0.620208 -0.238241 0)
(0.643246 -0.225354 0)
(0.666088 -0.209655 0)
(0.688957 -0.190412 0)
(0.711952 -0.166716 0)
(0.734987 -0.137637 0)
(0.757809 -0.102428 0)
(0.780112 -0.0606519 0)
(0.80169 -0.0122001 0)
(0.822563 0.0427855 0)
(0.842973 0.103977 0)
(0.863402 0.170889 0)
(0.884566 0.242889 0)
(0.907405 0.319135 0)
(0.933075 0.398484 0)
(0.962909 0.479359 0)
(0.998377 0.559616 0)
(1.0411 0.636539 0)
(0.0227089 -0.199146 0)
(0.0464926 -0.264867 0)
(0.0674686 -0.2761 0)
(0.0860443 -0.278703 0)
(0.103549 -0.279518 0)
(0.120961 -0.280192 0)
(0.138885 -0.281214 0)
(0.157653 -0.282662 0)
(0.177399 -0.28446 0)
(0.198136 -0.286487 0)
(0.219805 -0.288621 0)
(0.242309 -0.290751 0)
(0.265535 -0.292777 0)
(0.289364 -0.294611 0)
(0.31368 -0.296168 0)
(0.338362 -0.29737 0)
(0.363299 -0.298144 0)
(0.388388 -0.298421 0)
(0.413543 -0.298122 0)
(0.43869 -0.297146 0)
(0.463759 -0.295364 0)
(0.488687 -0.292624 0)
(0.513417 -0.288736 0)
(0.537894 -0.283466 0)
(0.56203 -0.276535 0)
(0.585693 -0.267689 0)
(0.60879 -0.25677 0)
(0.631423 -0.243653 0)
(0.653933 -0.22796 0)
(0.676702 -0.208908 0)
(0.699961 -0.185444 0)
(0.723683 -0.156465 0)
(0.747589 -0.121112 0)
(0.771309 -0.0789642 0)
(0.794575 -0.03005 0)
(0.817387 0.0252892 0)
(0.840023 0.0865225 0)
(0.862996 0.152978 0)
(0.88705 0.223845 0)
(0.913114 0.298123 0)
(0.94228 0.374537 0)
(0.975694 0.451458 0)
(1.01443 0.52676 0)
(1.05945 0.597823 0)
(0.0211524 -0.22552 0)
(0.0456675 -0.284535 0)
(0.0676479 -0.292185 0)
(0.0865374 -0.293199 0)
(0.103647 -0.29342 0)
(0.120269 -0.294179 0)
(0.137273 -0.29572 0)
(0.155122 -0.297908 0)
(0.174003 -0.30052 0)
(0.19394 -0.303348 0)
(0.214876 -0.306221 0)
(0.236708 -0.309002 0)
(0.259318 -0.311586 0)
(0.282583 -0.31388 0)
(0.306381 -0.3158 0)
(0.330586 -0.317265 0)
(0.355074 -0.318212 0)
(0.379732 -0.318582 0)
(0.40447 -0.318309 0)
(0.42921 -0.3173 0)
(0.453878 -0.315428 0)
(0.478407 -0.31255 0)
(0.502746 -0.308483 0)
(0.526854 -0.302979 0)
(0.550641 -0.295715 0)
(0.573916 -0.286411 0)
(0.596485 -0.275012 0)
(0.618443 -0.261634 0)
(0.640269 -0.246056 0)
(0.662533 -0.227434 0)
(0.685624 -0.204535 0)
(0.709603 -0.176006 0)
(0.734173 -0.140807 0)
(0.75887 -0.0985175 0)
(0.783354 -0.0493299 0)
(0.807587 0.00617401 0)
(0.831872 0.067236 0)
(0.85673 0.133005 0)
(0.882885 0.202513 0)
(0.911216 0.274645 0)
(0.942712 0.348058 0)
(0.978324 0.421193 0)
(1.01876 0.492093 0)
(1.06442 0.558414 0)
(0.0185849 -0.251098 0)
(0.0461209 -0.305519 0)
(0.0703453 -0.309284 0)
(0.0897144 -0.307806 0)
(0.106181 -0.306839 0)
(0.121718 -0.307448 0)
(0.137573 -0.309476 0)
(0.154347 -0.312454 0)
(0.172247 -0.315953 0)
(0.191288 -0.319652 0)
(0.211399 -0.323329 0)
(0.232464 -0.326821 0)
(0.254356 -0.330012 0)
(0.276948 -0.332815 0)
(0.300116 -0.335139 0)
(0.323728 -0.336902 0)
(0.347645 -0.338045 0)
(0.371748 -0.338529 0)
(0.39594 -0.338301 0)
(0.420143 -0.337275 0)
(0.444275 -0.335327 0)
(0.468259 -0.332324 0)
(0.49205 -0.328104 0)
(0.515639 -0.322407 0)
(0.538957 -0.314832 0)
(0.56174 -0.305018 0)
(0.583654 -0.293016 0)
(0.604747 -0.279292 0)
(0.625607 -0.26386 0)
(0.646966 -0.245816 0)
(0.669382 -0.223741 0)
(0.693057 -0.195961 0)
(0.717714 -0.161174 0)
(0.742811 -0.118928 0)
(0.76793 -0.0696099 0)
(0.793005 -0.0140841 0)
(0.818345 0.0466447 0)
(0.844466 0.111565 0)
(0.872027 0.179583 0)
(0.901801 0.249505 0)
(0.934684 0.319948 0)
(0.971458 0.389552 0)
(1.01253 0.456635 0)
(1.05792 0.519202 0)
(0.0152087 -0.275901 0)
(0.0492178 -0.329724 0)
(0.0765771 -0.327995 0)
(0.096016 -0.322347 0)
(0.111246 -0.319479 0)
(0.125293 -0.319845 0)
(0.139802 -0.322497 0)
(0.155425 -0.326439 0)
(0.172318 -0.330971 0)
(0.190445 -0.335657 0)
(0.209699 -0.340227 0)
(0.229948 -0.344499 0)
(0.25105 -0.348356 0)
(0.272877 -0.351723 0)
(0.295306 -0.354504 0)
(0.318201 -0.356612 0)
(0.341416 -0.357993 0)
(0.364824 -0.358628 0)
(0.388329 -0.358484 0)
(0.411848 -0.357482 0)
(0.43529 -0.35549 0)
(0.458561 -0.352393 0)
(0.481615 -0.348059 0)
(0.504478 -0.342235 0)
(0.527111 -0.33442 0)
(0.549239 -0.324099 0)
(0.57046 -0.311373 0)
(0.590769 -0.297148 0)
(0.610713 -0.281776 0)
(0.63097 -0.264275 0)
(0.652184 -0.243121 0)
(0.674786 -0.216256 0)
(0.698679 -0.182054 0)
(0.72335 -0.140004 0)
(0.748364 -0.0906855 0)
(0.773651 -0.0352538 0)
(0.799505 0.0250399 0)
(0.826396 0.0890587 0)
(0.854844 0.155597 0)
(0.885437 0.223384 0)
(0.91901 0.290946 0)
(0.956237 0.357277 0)
(0.997249 0.421041 0)
(1.04185 0.480576 0)
(0.0122264 -0.302412 0)
(0.0568167 -0.359539 0)
(0.0865791 -0.348355 0)
(0.104564 -0.336388 0)
(0.117675 -0.331237 0)
(0.129987 -0.331614 0)
(0.143239 -0.335189 0)
(0.157908 -0.340289 0)
(0.173986 -0.345958 0)
(0.191345 -0.351683 0)
(0.209838 -0.357174 0)
(0.229314 -0.362242 0)
(0.249624 -0.366767 0)
(0.270638 -0.370701 0)
(0.292238 -0.373934 0)
(0.314292 -0.376372 0)
(0.336664 -0.377952 0)
(0.359233 -0.37868 0)
(0.381901 -0.378538 0)
(0.404578 -0.377453 0)
(0.427163 -0.375272 0)
(0.449554 -0.371893 0)
(0.471687 -0.367236 0)
(0.493532 -0.36111 0)
(0.515061 -0.35292 0)
(0.536106 -0.341896 0)
(0.556619 -0.328142 0)
(0.576836 -0.313229 0)
(0.59664 -0.297831 0)
(0.616105 -0.280815 0)
(0.635689 -0.260754 0)
(0.656123 -0.235339 0)
(0.677896 -0.202408 0)
(0.700881 -0.161211 0)
(0.724839 -0.112516 0)
(0.749738 -0.0577022 0)
(0.775793 0.00184557 0)
(0.80327 0.0649373 0)
(0.832393 0.130266 0)
(0.863419 0.196359 0)
(0.897236 0.26137 0)
(0.934462 0.324819 0)
(0.974973 0.385752 0)
(1.01848 0.442749 0)
(0.0189812 -0.333972 0)
(0.072509 -0.393934 0)
(0.0979499 -0.367906 0)
(0.111563 -0.348669 0)
(0.122308 -0.341575 0)
(0.133599 -0.342151 0)
(0.146437 -0.346543 0)
(0.160832 -0.352548 0)
(0.176591 -0.359067 0)
(0.193534 -0.365561 0)
(0.211506 -0.371736 0)
(0.230353 -0.377393 0)
(0.249959 -0.382405 0)
(0.270185 -0.386744 0)
(0.290903 -0.390275 0)
(0.312001 -0.392891 0)
(0.333391 -0.394519 0)
(0.354988 -0.395186 0)
(0.376686 -0.394884 0)
(0.398349 -0.393537 0)
(0.419878 -0.390969 0)
(0.441227 -0.387101 0)
(0.462326 -0.381893 0)
(0.482924 -0.375213 0)
(0.502688 -0.36637 0)
(0.52194 -0.354546 0)
(0.541838 -0.340099 0)
(0.563155 -0.324858 0)
(0.584218 -0.309394 0)
(0.603872 -0.29272 0)
(0.621799 -0.273761 0)
(0.638678 -0.249776 0)
(0.656208 -0.218319 0)
(0.675573 -0.178624 0)
(0.697267 -0.131533 0)
(0.721378 -0.0786163 0)
(0.747889 -0.0213405 0)
(0.776519 0.0393979 0)
(0.806837 0.102513 0)
(0.838355 0.167178 0)
(0.872297 0.230345 0)
(0.909103 0.291859 0)
(0.948636 0.350808 0)
(0.990707 0.405824 0)
(1.03484 0.456436 0)
(0.0638684 -0.37092 0)
(0.101458 -0.428468 0)
(0.103713 -0.381751 0)
(0.111825 -0.356714 0)
(0.122632 -0.348332 0)
(0.135343 -0.349196 0)
(0.149327 -0.354288 0)
(0.164328 -0.360964 0)
(0.180272 -0.368085 0)
(0.19711 -0.375123 0)
(0.21476 -0.381784 0)
(0.233107 -0.387862 0)
(0.252118 -0.39321 0)
(0.27164 -0.397822 0)
(0.291514 -0.401532 0)
(0.311674 -0.404242 0)
(0.332124 -0.405856 0)
(0.352839 -0.406414 0)
(0.373671 -0.40588 0)
(0.394396 -0.40417 0)
(0.414924 -0.401067 0)
(0.435323 -0.396496 0)
(0.455501 -0.390353 0)
(0.474709 -0.382537 0)
(0.492824 -0.372368 0)
(0.511198 -0.359942 0)
(0.530367 -0.346608 0)
(0.551766 -0.3326 0)
(0.57213 -0.316603 0)
(0.590594 -0.298387 0)
(0.606363 -0.279675 0)
(0.618785 -0.257196 0)
(0.63109 -0.227474 0)
(0.646126 -0.189644 0)
(0.665401 -0.144524 0)
(0.689575 -0.0935805 0)
(0.717933 -0.0386864 0)
(0.748569 0.0194855 0)
(0.780173 0.0801797 0)
(0.81375 0.140434 0)
(0.849281 0.198312 0)
(0.885105 0.257515 0)
(0.922784 0.315411 0)
(0.962715 0.369355 0)
(1.00449 0.419181 0)
(0.199233 -0.451222 0)
(0.139165 -0.447091 0)
(0.0889678 -0.377205 0)
(0.0998396 -0.356908 0)
(0.119503 -0.350451 0)
(0.137668 -0.353012 0)
(0.154127 -0.359352 0)
(0.170038 -0.36712 0)
(0.186191 -0.375228 0)
(0.202894 -0.383123 0)
(0.220203 -0.3905 0)
(0.238066 -0.397193 0)
(0.256538 -0.403122 0)
(0.275442 -0.408206 0)
(0.294623 -0.412402 0)
(0.314063 -0.415714 0)
(0.333824 -0.418204 0)
(0.353891 -0.419811 0)
(0.374102 -0.420497 0)
(0.394241 -0.42021 0)
(0.414387 -0.419252 0)
(0.434812 -0.417761 0)
(0.455833 -0.415771 0)
(0.476798 -0.413042 0)
(0.507911 -0.416709 0)
(0.53549 -0.408628 0)
(0.562975 -0.399616 0)
(0.586151 -0.385235 0)
(0.603576 -0.363901 0)
(0.615436 -0.336814 0)
(0.608348 -0.300531 0)
(0.601575 -0.267915 0)
(0.604151 -0.235367 0)
(0.611897 -0.197164 0)
(0.625525 -0.152546 0)
(0.646876 -0.10201 0)
(0.677811 -0.0487506 0)
(0.71212 0.00538548 0)
(0.750659 0.0648674 0)
(0.797543 0.122697 0)
(0.83361 0.177181 0)
(0.866916 0.231061 0)
(0.90315 0.282871 0)
(0.940594 0.333241 0)
(0.978585 0.382556 0)
(0.296518 -0.61589 0)
(0.0788733 -0.371565 0)
(0.0602601 -0.351503 0)
(0.0856599 -0.38007 0)
(0.101596 -0.391972 0)
(0.126305 -0.396062 0)
(0.152546 -0.402021 0)
(0.17756 -0.410118 0)
(0.201336 -0.419148 0)
(0.224221 -0.428193 0)
(0.246524 -0.436732 0)
(0.26849 -0.44457 0)
(0.290336 -0.451491 0)
(0.312211 -0.457281 0)
(0.334284 -0.462008 0)
(0.356572 -0.465739 0)
(0.3791 -0.468477 0)
(0.401895 -0.469963 0)
(0.425016 -0.469943 0)
(0.448466 -0.468436 0)
(0.472158 -0.465644 0)
(0.495991 -0.461246 0)
(0.519795 -0.454503 0)
(0.543027 -0.445355 0)
(0.565105 -0.43307 0)
(0.586012 -0.418971 0)
(0.607164 -0.403582 0)
(0.62612 -0.383462 0)
(0.642306 -0.357936 0)
(0.656278 -0.327963 0)
(0.667788 -0.298684 0)
(0.67845 -0.276022 0)
(0.685998 -0.25563 0)
(0.691112 -0.229622 0)
(0.69607 -0.198337 0)
(0.704533 -0.161318 0)
(0.686882 -0.104123 0)
(0.678805 -0.0320563 0)
(0.706167 0.031365 0)
(0.767485 0.0999688 0)
(0.807961 0.16147 0)
(0.854857 0.214128 0)
(0.894851 0.262584 0)
(0.928549 0.308376 0)
(0.962459 0.351585 0)
(-0.102502 -0.773183 0)
(-0.0349154 -0.313605 0)
(0.0174515 -0.348824 0)
(0.0616656 -0.397335 0)
(0.0967053 -0.408091 0)
(0.130669 -0.410457 0)
(0.163209 -0.413963 0)
(0.193563 -0.419465 0)
(0.221817 -0.426172 0)
(0.248387 -0.433341 0)
(0.273724 -0.440464 0)
(0.298217 -0.447244 0)
(0.322193 -0.453436 0)
(0.345919 -0.458843 0)
(0.369631 -0.463393 0)
(0.393431 -0.467018 0)
(0.417408 -0.469691 0)
(0.441602 -0.471279 0)
(0.466053 -0.471612 0)
(0.490753 -0.470623 0)
(0.515578 -0.46836 0)
(0.540277 -0.464721 0)
(0.56464 -0.459582 0)
(0.588112 -0.452935 0)
(0.609866 -0.44476 0)
(0.629767 -0.432926 0)
(0.648768 -0.417183 0)
(0.666389 -0.395868 0)
(0.683099 -0.368914 0)
(0.699809 -0.337956 0)
(0.716797 -0.306571 0)
(0.732394 -0.278724 0)
(0.744301 -0.250858 0)
(0.752575 -0.218356 0)
(0.758594 -0.179586 0)
(0.765372 -0.135219 0)
(0.770365 -0.0941564 0)
(0.782116 -0.0709989 0)
(0.797042 -0.0580698 0)
(0.819955 -0.0105084 0)
(0.778553 0.117495 0)
(0.829337 0.18287 0)
(0.875512 0.243872 0)
(0.919957 0.291769 0)
(0.958936 0.332848 0)
(-0.128488 -0.566902 0)
(-0.0621835 -0.428689 0)
(0.0104988 -0.42154 0)
(0.0632961 -0.434118 0)
(0.10558 -0.438881 0)
(0.144153 -0.440082 0)
(0.180225 -0.441893 0)
(0.213689 -0.445305 0)
(0.244688 -0.450064 0)
(0.273629 -0.45565 0)
(0.300984 -0.461593 0)
(0.327185 -0.467542 0)
(0.352596 -0.47321 0)
(0.377528 -0.478371 0)
(0.40222 -0.482865 0)
(0.426836 -0.48655 0)
(0.451481 -0.489336 0)
(0.476193 -0.491088 0)
(0.500984 -0.491637 0)
(0.52583 -0.490844 0)
(0.550617 -0.488628 0)
(0.575136 -0.484868 0)
(0.599131 -0.479392 0)
(0.62235 -0.472259 0)
(0.644176 -0.46305 0)
(0.664424 -0.45056 0)
(0.683181 -0.433816 0)
(0.700851 -0.411816 0)
(0.718386 -0.384831 0)
(0.736576 -0.354339 0)
(0.755394 -0.322794 0)
(0.773371 -0.292015 0)
(0.788734 -0.260348 0)
(0.801617 -0.224929 0)
(0.813369 -0.184318 0)
(0.825849 -0.138397 0)
(0.840722 -0.0923614 0)
(0.855509 -0.0535712 0)
(0.863572 -0.0167529 0)
(0.867231 0.0324141 0)
(0.870323 0.0788004 0)
(0.897607 0.0848601 0)
(0.86602 0.18202 0)
(0.898456 0.257435 0)
(0.945739 0.313319 0)
(-0.0574423 -0.502354 0)
(-0.0338029 -0.489323 0)
(0.0257891 -0.478078 0)
(0.0762905 -0.477487 0)
(0.120767 -0.476598 0)
(0.161199 -0.474971 0)
(0.198736 -0.474346 0)
(0.23363 -0.475449 0)
(0.266076 -0.478168 0)
(0.296418 -0.482087 0)
(0.325064 -0.486753 0)
(0.35241 -0.491774 0)
(0.378802 -0.496811 0)
(0.404539 -0.501585 0)
(0.42985 -0.505872 0)
(0.454905 -0.509475 0)
(0.479808 -0.512233 0)
(0.504596 -0.513975 0)
(0.529265 -0.514503 0)
(0.553782 -0.513624 0)
(0.57806 -0.511182 0)
(0.601942 -0.506997 0)
(0.625257 -0.500865 0)
(0.647771 -0.492577 0)
(0.669189 -0.481927 0)
(0.68925 -0.468068 0)
(0.708014 -0.450308 0)
(0.72605 -0.427944 0)
(0.744235 -0.401301 0)
(0.76316 -0.371522 0)
(0.782745 -0.340191 0)
(0.802016 -0.308321 0)
(0.820024 -0.275025 0)
(0.836858 -0.238747 0)
(0.853392 -0.198379 0)
(0.870967 -0.154115 0)
(0.889854 -0.108265 0)
(0.907453 -0.0639588 0)
(0.918886 -0.0173746 0)
(0.92692 0.0388418 0)
(0.937794 0.0948467 0)
(0.950733 0.128579 0)
(0.950016 0.16439 0)
(0.965871 0.176075 0)
(0.950033 0.244852 0)
(-0.0235175 -0.481339 0)
(-0.00291444 -0.523204 0)
(0.0459032 -0.52358 0)
(0.0931019 -0.519799 0)
(0.137048 -0.515041 0)
(0.177588 -0.510507 0)
(0.215345 -0.5074 0)
(0.250624 -0.506238 0)
(0.283639 -0.506947 0)
(0.314661 -0.509169 0)
(0.344016 -0.512474 0)
(0.372028 -0.516443 0)
(0.398999 -0.520703 0)
(0.425185 -0.524926 0)
(0.450793 -0.528835 0)
(0.475974 -0.532177 0)
(0.500822 -0.534734 0)
(0.525372 -0.536286 0)
(0.549614 -0.536604 0)
(0.573514 -0.535467 0)
(0.597005 -0.532668 0)
(0.619978 -0.527997 0)
(0.642303 -0.521219 0)
(0.66384 -0.512099 0)
(0.684403 -0.500318 0)
(0.703885 -0.485439 0)
(0.722422 -0.466889 0)
(0.740519 -0.444362 0)
(0.758859 -0.418124 0)
(0.777909 -0.389021 0)
(0.797659 -0.358077 0)
(0.817596 -0.325871 0)
(0.837212 -0.291987 0)
(0.856554 -0.255474 0)
(0.876157 -0.215631 0)
(0.896695 -0.172464 0)
(0.9181 -0.127117 0)
(0.938595 -0.0804977 0)
(0.956038 -0.0305042 0)
(0.972264 0.0258596 0)
(0.99013 0.0837394 0)
(1.00616 0.134435 0)
(1.01679 0.182965 0)
(1.02586 0.214204 0)
(1.02261 0.242184 0)
(-0.0113778 -0.475161 0)
(0.018153 -0.556142 0)
(0.0645651 -0.56529 0)
(0.109155 -0.56037 0)
(0.151338 -0.552841 0)
(0.190808 -0.545772 0)
(0.227895 -0.540419 0)
(0.262835 -0.537209 0)
(0.29579 -0.53607 0)
(0.32695 -0.536682 0)
(0.356544 -0.538635 0)
(0.384817 -0.541505 0)
(0.412003 -0.544895 0)
(0.438312 -0.548443 0)
(0.463914 -0.551824 0)
(0.488932 -0.554743 0)
(0.513447 -0.556929 0)
(0.537488 -0.558123 0)
(0.561049 -0.558067 0)
(0.584099 -0.556513 0)
(0.606587 -0.553229 0)
(0.628436 -0.547983 0)
(0.649563 -0.540536 0)
(0.669888 -0.53064 0)
(0.689345 -0.518029 0)
(0.707934 -0.502357 0)
(0.725847 -0.483315 0)
(0.743517 -0.460762 0)
(0.761475 -0.434969 0)