/*--------------------------------*- C++ -*----------------------------------*\
| =========                 |                                                 |
| \\      /  F ield         | OpenFOAM: The Open Source CFD Toolbox           |
|  \\    /   O peration     | Version:  5.0                                   |
|   \\  /    A nd           | Web:      www.OpenFOAM.org                      |
|    \\/     M anipulation  |                                                 |
\*---------------------------------------------------------------------------*/
FoamFile
{
    version     2.0;
    format      ascii;
    class       volScalarField;
    location    "0.3";
    object      alpha.water;
}
// * * * * * * * * * * * * * * * * * * * * * * * * * * * * * * * * * * * * * //

dimensions      [0 0 0 0 0 0 0];

internalField   nonuniform List<scalar> 
1915
(
0.867665
0.982341
0.997803
1
0.999778
0.999202
0.999972
1
0.999994
0.999998
1
0.999999
1
1
1
1
1
1
1
1
3.17204e-24
4.01752e-23
5.92376e-23
3.13774e-23
5.71168e-24
6.58782e-25
4.63255e-26
2.15263e-27
7.61738e-29
7.22058e-30
1.82822e-30
3.87095e-31
6.56183e-32
9.26882e-33
1.12574e-33
1.21135e-34
1.18203e-35
1.05273e-36
8.55644e-38
6.3604e-39
4.31173e-40
2.66047e-41
1.49308e-42
7.60133e-44
3.49844e-45
1.44767e-46
5.35714e-48
1.76022e-49
5.14412e-51
1.31959e-52
2.92276e-54
5.44704e-56
8.29887e-58
9.99134e-60
9.08112e-62
5.84056e-64
2.40644e-66
5.34123e-69
5.15144e-72
8.018e-75
3.4808e-22
2.23255e-21
3.27677e-21
2.64792e-21
6.35778e-22
8.52252e-23
8.23228e-24
5.15896e-25
3.23762e-26
2.84749e-27
3.63421e-28
5.09644e-29
6.56226e-30
7.47166e-31
7.59017e-32
7.01107e-33
5.9789e-34
4.72536e-35
3.4597e-36
2.341e-37
1.45615e-38
8.29765e-40
4.32597e-41
2.06234e-42
8.95212e-44
3.51823e-45
1.24464e-46
3.93494e-48
1.10144e-49
2.70177e-51
5.72175e-53
1.02621e-54
1.52357e-56
1.81814e-58
1.67794e-60
1.1366e-62
5.23134e-65
1.45951e-67
2.21786e-70
3.2228e-73
1.50726e-20
9.69189e-20
1.52601e-19
1.43462e-19
3.78066e-20
5.55355e-21
6.45507e-22
5.21656e-23
4.16479e-24
3.6752e-25
3.68237e-26
3.81017e-27
3.71653e-28
3.30962e-29
2.69853e-30
2.04181e-31
1.4491e-32
9.67371e-34
6.06044e-35
3.54601e-36
1.92703e-37
9.68465e-39
4.48765e-40
1.91629e-41
7.51364e-43
2.6901e-44
8.74236e-46
2.56115e-47
6.70712e-49
1.55498e-50
3.14967e-52
5.48438e-54
8.04794e-56
9.7038e-58
9.30104e-60
6.76915e-62
3.48577e-64
1.1175e-66
1.63466e-69
1.12995e-72
3.77161e-19
2.79357e-18
4.87966e-18
4.95828e-18
1.41935e-18
2.40321e-19
3.34512e-20
3.3787e-21
3.13973e-22
2.87511e-23
2.54829e-24
2.11904e-25
1.62248e-26
1.14446e-27
7.51594e-29
4.65448e-30
2.73944e-31
1.53521e-32
8.1703e-34
4.10901e-35
1.94177e-36
8.578e-38
3.52777e-39
1.34764e-40
4.76701e-42
1.55256e-43
4.62583e-45
1.25242e-46
3.05702e-48
6.66656e-50
1.28386e-51
2.15239e-53
3.08715e-55
3.70479e-57
3.61126e-59
2.73843e-61
1.50164e-63
5.02135e-66
7.17703e-69
2.26264e-72
7.534e-18
6.53347e-17
1.27057e-16
1.35731e-16
4.04062e-17
7.25725e-18
1.08057e-18
1.28667e-19
1.44977e-20
1.4319e-21
1.1827e-22
8.47202e-24
5.39451e-25
3.13737e-26
1.70694e-27
8.83273e-29
4.37791e-30
2.07989e-31
9.45362e-33
4.09796e-34
1.68626e-35
6.55368e-37
2.39464e-38
8.19776e-40
2.62101e-41
7.77834e-43
2.12809e-44
5.33154e-46
1.21382e-47
2.4897e-49
4.55218e-51
7.32306e-53
1.02011e-54
1.20541e-56
1.17432e-58
9.02502e-61
5.03076e-63
1.70996e-65
2.16898e-68
6.28506e-72
1.48168e-16
1.23388e-15
2.29204e-15
2.37763e-15
5.92615e-16
1.14349e-16
1.75888e-17
2.64104e-18
3.54926e-19
3.67556e-20
2.98619e-21
2.03863e-22
1.20613e-23
6.31597e-25
3.01491e-26
1.35212e-27
5.79756e-29
2.38847e-30
9.45291e-32
3.58612e-33
1.29951e-34
4.47998e-36
1.46299e-37
4.51099e-39
1.30903e-40
3.55175e-42
8.94769e-44
2.07888e-45
4.42137e-47
8.53632e-49
1.48117e-50
2.28122e-52
3.07108e-54
3.5416e-56
3.39776e-58
2.58321e-60
1.4094e-62
4.69233e-65
4.78976e-68
1.17445e-71
2.10372e-15
1.48003e-14
2.47355e-14
2.43707e-14
3.7242e-15
8.68577e-16
1.53389e-16
2.56692e-17
3.65711e-18
3.91202e-19
3.33541e-20
2.36983e-21
1.45455e-22
7.7573e-24
3.62544e-25
1.52755e-26
5.97767e-28
2.21719e-29
7.87082e-31
2.67952e-32
8.73409e-34
2.71804e-35
8.04091e-37
2.26015e-38
6.00786e-40
1.50096e-41
3.50139e-43
7.57723e-45
1.51023e-46
2.74998e-48
4.53056e-50
6.67139e-52
8.64628e-54
9.65902e-56
9.01045e-58
6.62562e-60
3.50333e-62
1.07846e-64
6.20211e-68
1.52089e-71
1.80875e-14
8.95673e-14
1.23688e-13
6.81117e-14
1.59164e-14
4.6323e-15
8.96189e-16
1.2437e-16
1.69311e-17
2.00086e-18
1.85103e-19
1.4116e-20
9.19642e-22
5.21301e-23
2.58036e-24
1.1226e-25
4.36673e-27
1.55618e-28
5.19045e-30
1.64135e-31
4.94726e-33
1.4219e-34
3.88961e-36
1.01444e-37
2.50681e-39
5.83654e-41
1.27309e-42
2.58613e-44
4.85961e-46
8.38233e-48
1.31476e-49
1.8524e-51
2.30749e-53
2.48553e-55
2.23434e-57
1.5748e-59
7.97296e-62
2.22263e-64
9.74867e-68
1.62631e-71
1.26406e-13
3.99921e-13
4.6809e-13
1.70785e-13
6.76651e-14
2.51812e-14
4.53361e-15
4.76504e-16
4.67261e-17
7.09615e-18
7.05241e-19
5.78956e-20
3.86366e-21
2.21552e-22
1.13413e-23
5.18788e-25
2.11365e-26
7.71716e-28
2.56569e-29
7.90242e-31
2.28331e-32
6.22614e-34
1.61626e-35
3.98883e-37
9.3237e-39
2.05436e-40
4.24665e-42
8.19102e-44
1.465e-45
2.41207e-47
3.6229e-49
4.90333e-51
5.88274e-53
6.10888e-55
5.27847e-57
3.56217e-59
1.70766e-61
4.18584e-64
1.4563e-67
3.2479e-72
5.89848e-13
1.56323e-12
8.30755e-13
3.92022e-13
2.5108e-13
1.39965e-13
5.51991e-14
1.12617e-14
9.22965e-16
4.17393e-17
4.16874e-18
3.1756e-19
1.81143e-20
8.62871e-22
3.99985e-23
1.77045e-24
7.26935e-26
2.72181e-27
9.26493e-29
2.88614e-30
8.30385e-32
2.23178e-33
5.65284e-35
1.34977e-36
3.03788e-38
6.43409e-40
1.27853e-41
2.37287e-43
4.08887e-45
6.49509e-47
9.42813e-49
1.23579e-50
1.43839e-52
1.45021e-54
1.21512e-56
7.86804e-59
3.51448e-61
7.14946e-64
1.82181e-67
1.53224e-73
1
1
1
1
1
1
1
1
1
1
1
1
1
1
1
1
1
1
1
1
1
1
1.00001
1.00001
0.755726
0.0558293
0.00138027
0.000171534
1.2878e-05
2.55888e-06
2.94386e-07
3.37513e-08
4.42436e-09
7.41265e-09
2.10177e-08
2.00506e-08
9.66508e-09
3.36434e-08
9.39156e-08
1.25521e-06
1.6825e-06
8.86597e-08
1.29672e-07
0.577229
-9.40878e-29
4.34705e-13
2.73814e-12
0.926532
0.145568
5.70593e-13
2.57898e-12
1.00038
0.730868
0.108768
-4.66811e-07
1.00044
0.997155
0.557739
0.0279407
1.00008
0.999425
0.990505
0.427294
1.00002
0.99992
0.997863
0.9728
1.00001
1
0.999768
0.996444
1
1.00001
0.999913
0.999574
1
1
1
0.999856
1
1
0.999998
0.99997
1
1
1
1
1
1
1
0.999999
1
1
0.999998
0.999997
1.00002
1.00003
0.999999
0.999995
0.999469
0.999867
1.00009
0.999993
0.34421
0.94831
0.998845
0.999889
0.00586428
0.223444
0.799971
0.996741
0.00072619
0.00483606
0.11341
0.724736
0.000117423
0.000516629
0.00364342
0.192297
5.19468e-06
3.67133e-05
0.000629173
0.00430017
1.83024e-07
5.86919e-06
0.0001258
0.000774669
-3.06767e-08
2.53104e-06
1.95437e-05
0.000119237
4.45723e-08
3.0399e-07
9.06497e-07
2.6259e-05
9.69526e-09
-6.84386e-08
3.74355e-07
5.20224e-06
2.50348e-09
-7.22767e-09
8.30741e-08
1.08673e-06
1.33047e-09
-4.9241e-08
4.93291e-23
2.13877e-07
5.0671e-10
-2.94918e-07
5.41688e-07
1.7669e-06
9.721e-10
-5.25523e-07
7.93412e-06
0.00929588
6.56128e-11
-6.86902e-07
-5.894e-17
0.0798764
6.16614e-24
-5.5288e-07
-1.26968e-16
0.339697
6.34002e-06
-1.36397e-18
1.67855e-07
0.393059
1.7681e-05
6.02309e-05
4.05081e-07
0.146834
5.04668e-05
0.00026076
2.36656e-06
7.96122e-06
2.10742e-12
2.95128e-12
1.40278e-12
1.23738e-12
1.53687e-12
1.76665e-12
1.28506e-12
5.56537e-13
7.06269e-14
1.83094e-15
1.81654e-16
7.76323e-18
2.69165e-19
7.17817e-21
2.03592e-22
6.61183e-24
2.31916e-25
8.10396e-27
2.68935e-28
8.33209e-30
2.40743e-31
6.51887e-33
1.65331e-34
3.91293e-36
8.65175e-38
1.78942e-39
3.46111e-41
6.24836e-43
1.0487e-44
1.62612e-46
2.30864e-48
2.96411e-50
3.38488e-52
3.35507e-54
2.77275e-56
1.77308e-58
7.56366e-61
1.19751e-63
1.20788e-67
7.5207e-74
2.32738e-12
3.27853e-12
3.52014e-12
4.81379e-12
6.52616e-12
8.1416e-12
9.70887e-12
6.18458e-12
1.07748e-12
6.26725e-14
7.3223e-15
2.69201e-16
6.99797e-18
1.41341e-19
2.68102e-21
5.25375e-23
1.16559e-24
2.97135e-26
8.18913e-28
2.29024e-29
6.20805e-31
1.62767e-32
4.07353e-34
9.54534e-36
2.10827e-37
4.3528e-39
8.3565e-41
1.48609e-42
2.44531e-44
3.71722e-46
5.18818e-48
6.57529e-50
7.44944e-52
7.37318e-54
6.14818e-56
4.04704e-58
1.83505e-60
3.60813e-63
1.06097e-67
5.78886e-74
-1.73455e-07
3.62176e-12
1.72832e-11
1.83804e-11
1.31628e-11
1.23104e-11
2.26075e-11
1.84977e-11
6.31827e-12
1.07564e-12
1.36251e-13
7.58859e-15
1.88474e-16
3.39759e-18
5.81993e-20
9.51489e-22
1.57479e-23
2.81074e-25
5.49635e-27
1.07323e-28
1.89581e-30
3.28977e-32
6.39875e-34
1.46937e-35
3.52628e-37
7.96162e-39
1.63698e-40
3.05092e-42
5.15348e-44
7.90787e-46
1.10172e-47
1.3896e-49
1.5687e-51
1.5544e-53
1.31115e-55
8.94184e-58
4.45669e-60
1.25112e-62
4.28876e-66
2.83254e-72
-0.00031863
-1.05712e-05
1.61443e-11
3.36781e-11
1.16121e-10
4.13557e-11
3.4707e-11
2.2601e-11
1.7634e-11
8.06397e-12
1.07081e-12
1.10703e-13
3.80985e-15
7.03719e-17
1.22944e-18
2.07082e-20
3.50761e-22
6.32002e-24
1.10113e-25
1.54088e-27
1.23279e-29
2.02662e-32
2.6776e-34
3.2839e-36
3.73836e-38
4.19612e-40
6.82724e-42
2.28713e-42
7.34164e-44
1.34025e-45
1.93119e-47
2.47837e-49
2.86075e-51
2.91748e-53
2.55956e-55
1.85113e-57
1.02744e-59
3.79849e-62
6.21608e-65
3.77988e-69
0.00892444
0.000577028
-1.79927e-05
-9.31775e-07
1.19023e-10
2.25297e-10
1.46077e-10
6.03934e-11
2.6237e-11
2.18993e-11
4.63138e-12
7.46087e-13
4.28852e-14
1.00183e-15
1.99766e-17
4.0192e-19
8.14626e-21
1.55993e-22
2.65056e-24
3.48569e-26
2.15078e-28
6.0179e-31
8.79966e-33
1.20255e-34
1.53143e-36
1.81282e-38
1.98768e-40
2.0132e-42
2.26901e-44
2.26502e-45
3.46922e-47
3.6164e-49
3.9114e-51
3.93956e-53
3.51591e-55
2.66465e-57
1.61648e-59
7.11992e-62
1.8649e-64
1.65517e-67
0.316131
0.00843698
0.000803199
2.6135e-06
-1.3802e-06
-2.67076e-10
-1.91031e-13
3.14799e-10
6.02795e-11
2.45131e-11
1.29428e-11
2.87567e-12
2.60541e-13
9.05451e-15
2.29648e-16
5.88079e-18
1.37221e-19
2.85739e-21
5.07858e-23
6.84684e-25
3.88178e-27
1.49146e-29
2.40691e-31
3.63693e-33
5.12677e-35
6.72612e-37
8.1894e-39
9.37965e-41
1.08851e-42
5.16322e-44
4.31988e-46
2.53225e-48
1.3224e-50
9.53887e-53
6.08453e-55
3.2357e-57
1.36081e-59
4.07213e-62
6.81202e-65
2.10584e-68
0.907437
0.254747
0.00762128
0.000822989
9.30278e-06
-1.14468e-06
1.52275e-08
2.86181e-09
4.96136e-10
6.55637e-11
2.23638e-11
9.10674e-12
1.05615e-12
5.62044e-14
1.92019e-15
5.58111e-17
1.45641e-18
3.34062e-20
6.36053e-22
8.30766e-24
3.57255e-26
3.14641e-28
5.67564e-30
9.52471e-32
1.48224e-33
2.13653e-35
2.85104e-37
3.6558e-39
4.68387e-41
2.23931e-42
1.94094e-44
1.14198e-46
7.48757e-49
5.8548e-51
3.94525e-53
2.18646e-55
9.36649e-58
2.75556e-60
4.16902e-63
1.02595e-68
0.995141
0.68418
0.0873422
0.00373618
0.000440885
1.70563e-05
3.3982e-07
6.84978e-08
5.46686e-09
3.78001e-10
5.01827e-11
2.35861e-11
4.04378e-12
2.78186e-13
1.17151e-14
3.66649e-16
9.9231e-18
2.34695e-19
4.29028e-21
3.67984e-23
2.78349e-25
6.16946e-27
1.2655e-28
2.38872e-30
4.14036e-32
6.58779e-34
9.63627e-36
1.38717e-37
1.94932e-39
8.82828e-41
8.10629e-43
5.17017e-45
4.12295e-47
3.46893e-49
2.49677e-51
1.47281e-53
6.68501e-56
2.07346e-58
3.28782e-61
8.66849e-67
0.998876
0.993863
0.377101
0.0126114
0.00207913
0.000181721
9.08098e-06
7.18687e-07
6.38566e-08
3.87072e-09
2.86488e-10
4.09209e-11
1.44161e-11
1.35765e-12
5.92735e-14
1.86124e-15
4.49257e-17
8.05313e-19
1.13582e-20
1.72748e-22
4.77242e-24
1.2146e-25
2.83205e-27
6.03158e-29
1.17167e-30
2.07494e-32
3.37462e-34
5.54971e-36
2.95919e-37
3.67023e-39
3.2678e-41
2.31778e-43
2.33066e-45
2.11162e-47
1.62262e-49
1.01971e-51
4.91201e-54
1.61036e-56
2.6863e-59
7.87401e-65
0.999954
0.998213
0.937625
0.228977
0.00747702
0.00113502
0.000107147
7.23021e-06
4.28342e-07
3.32909e-08
2.47106e-09
1.87049e-10
3.13886e-11
5.86262e-12
3.4951e-13
9.86849e-15
1.75182e-16
3.55629e-18
7.85182e-20
2.63757e-21
8.17828e-23
2.32788e-24
6.06045e-26
1.43922e-27
3.11123e-29
6.11559e-31
1.13004e-32
2.03669e-34
1.04972e-35
1.35878e-37
1.30662e-39
1.12038e-41
1.2333e-43
1.19685e-45
9.8214e-48
6.57149e-50
3.35977e-52
1.1652e-54
2.04857e-57
6.7009e-63
0.999955
0.99959
0.997513
0.497831
0.036807
0.00306742
0.000385345
3.72678e-05
3.14654e-06
2.25978e-07
1.86645e-08
1.25326e-09
9.29916e-11
1.49254e-11
2.26341e-12
9.37147e-14
2.05622e-15
5.58076e-17
1.57554e-18
4.00569e-20
1.28398e-21
4.01339e-23
1.14895e-24
3.00332e-26
7.14662e-28
1.54767e-29
3.43577e-31
1.7423e-32
3.39266e-34
4.30782e-36
4.59798e-38
4.67958e-40
5.537e-42
5.74048e-44
5.02235e-46
3.57328e-48
1.93755e-50
7.10766e-53
1.31788e-55
4.81739e-61
0.999988
1.00002
0.999669
0.989273
0.2392
0.00785052
0.00132534
0.000160124
1.5963e-05
1.25565e-06
9.89426e-08
7.51543e-09
5.26974e-10
3.94165e-11
7.65292e-12
8.75599e-13
3.31121e-14
9.74529e-16
3.05185e-17
1.06785e-18
3.48596e-20
1.05735e-21
3.0109e-23
8.22144e-25
2.2077e-26
5.90416e-28
1.71531e-29
5.17641e-31
8.49902e-33
1.17429e-34
1.34182e-36
1.58714e-38
2.01239e-40
2.22308e-42
2.0692e-44
1.56269e-46
8.97495e-49
3.47978e-51
6.80351e-54
2.77835e-59
0.999997
1.00001
0.999819
0.998698
0.495677
0.0325057
0.0028015
0.00042074
5.08131e-05
4.94588e-06
4.13475e-07
3.46885e-08
2.56044e-09
1.95458e-10
1.53616e-11
3.7392e-12
3.13901e-13
1.24299e-14
4.80747e-16
1.77711e-17
6.13819e-19
1.99399e-20
6.18061e-22
1.8623e-23
5.52695e-25
1.61389e-26
4.67494e-28
9.51475e-30
1.64542e-31
2.46349e-33
2.99973e-35
4.04326e-37
5.47507e-39
6.42625e-41
6.34729e-43
5.07706e-45
3.08281e-47
1.26152e-49
2.59845e-52
1.18312e-57
0.999983
0.999975
0.99998
1.00027
0.867609
0.144241
0.00549493
0.000868688
0.000131077
1.51481e-05
1.43718e-06
1.22829e-07
9.9851e-09
7.73241e-10
6.8618e-11
7.16686e-12
1.44043e-12
9.30962e-14
3.94007e-15
1.70227e-16
6.87032e-18
2.5654e-19
8.87976e-21
2.85554e-22
8.54899e-24
2.41408e-25
5.99083e-27
1.26876e-28
2.36829e-30
3.81024e-32
4.95852e-34
7.4351e-36
1.07099e-37
1.3316e-39
1.39165e-41
1.17591e-43
7.53139e-46
3.24624e-48
7.03313e-51
3.55763e-56
0.999977
0.999936
0.999929
0.999934
0.99862
0.316339
0.00928071
0.00153417
0.000269979
3.56624e-05
3.87485e-06
3.68567e-07
3.19215e-08
2.56152e-09
2.21615e-10
2.05604e-11
4.13345e-12
4.14002e-13
2.12248e-14
9.91823e-16
4.40598e-17
1.79963e-18
6.74056e-20
2.31346e-21
7.29539e-23
2.10004e-24
5.34531e-26
1.21583e-27
2.44315e-29
4.22423e-31
5.91624e-33
9.52848e-35
1.45306e-36
1.9082e-38
2.10344e-40
1.87204e-42
1.26126e-44
5.71209e-47
1.29885e-49
7.26176e-55
0.99995
0.99991
0.999813
0.999732
0.999353
0.571095
0.0375197
0.00251931
0.000462945
6.79671e-05
8.34223e-06
8.8632e-07
8.47022e-08
7.40204e-09
5.99322e-10
6.19127e-11
6.24931e-12
1.19424e-12
8.83783e-14
4.19376e-15
1.99871e-16
8.79131e-18
3.52781e-19
1.29085e-20
4.32111e-22
1.30759e-23
3.56688e-25
8.70856e-27
1.87674e-28
3.48355e-30
5.26938e-32
8.86693e-34
1.4245e-35
1.96952e-37
2.282e-39
2.13217e-41
1.50649e-43
7.14797e-46
1.70127e-48
1.04484e-53
0.999523
0.999822
0.999731
0.999542
0.999342
0.774873
0.101463
0.00396286
0.000728132
0.000116533
1.56324e-05
1.81905e-06
1.88883e-07
1.78139e-08
1.54511e-09
1.45625e-10
1.41176e-11
2.72758e-12
2.57157e-13
1.38712e-14
6.96051e-16
3.27162e-17
1.40227e-18
5.49249e-20
1.96079e-21
6.34178e-23
1.84984e-24
4.8281e-26
1.11293e-27
2.21607e-29
3.63272e-31
6.21431e-33
1.04624e-34
1.51795e-36
1.84201e-38
1.80059e-40
1.32975e-42
6.58926e-45
1.63659e-47
1.09635e-52
0.994507
0.99902
0.999575
0.999332
0.999138
0.890096
0.185035
0.00552667
0.00100564
0.000169367
2.43834e-05
3.07183e-06
3.44037e-07
3.49089e-08
3.2387e-09
2.84675e-10
3.12093e-11
4.64177e-12
5.70939e-13
3.7218e-14
1.95299e-15
9.755e-17
4.47125e-18
1.87047e-19
7.109e-21
2.44832e-22
7.60513e-24
2.11472e-25
5.20279e-27
1.1109e-28
1.98001e-30
3.33151e-32
5.84375e-34
8.86826e-36
1.12286e-37
1.14419e-39
8.80126e-42
4.53934e-44
1.1727e-46
8.50025e-52
0.883068
0.995959
0.998817
0.999128
0.998467
0.936932
0.265141
0.0067301
0.00124048
0.000215418
3.28248e-05
4.41837e-06
5.29397e-07
5.73368e-08
5.66737e-09
5.14959e-10
5.73893e-11
6.06523e-12
1.05671e-12
8.49342e-14
4.55976e-15
2.4121e-16
1.17467e-17
5.20486e-19
2.09581e-20
7.64863e-22
2.51847e-23
7.43172e-25
1.94537e-26
4.44406e-28
8.60419e-30
1.38525e-31
2.51852e-33
3.98382e-35
5.24302e-37
5.54875e-39
4.42963e-41
2.36954e-43
6.34532e-46
4.93357e-51
0.625274
0.990462
0.997497
0.998477
0.99805
0.972411
0.349688
0.00774459
0.00143309
0.000253063
4.00009e-05
5.68022e-06
7.21457e-07
8.26935e-08
8.63795e-09
8.28125e-10
9.10096e-11
9.29367e-12
1.73133e-12
1.59526e-13
9.20794e-15
5.0934e-16
2.6113e-17
1.21897e-18
5.1716e-20
1.9891e-21
6.90766e-23
2.15307e-24
5.97024e-26
1.45278e-27
3.03321e-29
5.19138e-31
8.6841e-33
1.41569e-34
1.93396e-36
2.11744e-38
1.74766e-40
9.66014e-43
2.67159e-45
2.20751e-50
0.288319
0.937107
0.995862
0.997452
0.997801
0.980097
0.421416
0.0100227
0.00154976
0.000277006
4.50548e-05
6.66836e-06
8.88075e-07
1.06808e-07
1.16937e-08
1.1746e-09
1.28528e-10
1.3911e-11
2.53916e-12
2.55849e-13
1.59509e-14
9.20326e-16
4.94208e-17
2.41873e-18
1.07631e-19
4.34526e-21
1.58588e-22
5.2053e-24
1.52501e-25
3.94374e-27
8.84794e-29
1.67228e-30
2.51351e-32
4.03152e-34
5.69116e-36
6.42767e-38
5.46492e-40
3.11008e-42
8.85112e-45
7.69709e-50
0.102018
0.841086
0.994597
0.996405
0.99717
0.974548
0.415405
0.0088452
0.001551
0.000279531
4.65184e-05
7.07424e-06
9.753e-07
1.21937e-07
1.3889e-08
1.44971e-09
1.59143e-10
1.80369e-11
3.2605e-12
3.52308e-13
2.33805e-14
1.40261e-15
7.85451e-17
4.01317e-18
1.86598e-19
7.88064e-21
3.01374e-22
1.03897e-23
3.20868e-25
8.798e-27
2.11391e-28
4.36201e-30
7.46585e-32
9.98331e-34
1.31733e-35
1.53401e-37
1.34114e-39
7.83262e-42
2.28644e-44
2.07174e-49
0.0136737
0.681111
0.992674
0.995497
0.99638
0.954248
0.384454
0.00704467
0.00142088
0.000259594
4.38619e-05
6.78167e-06
9.55529e-07
1.22586e-07
1.43646e-08
1.54424e-09
1.72509e-10
2.02302e-11
3.70907e-12
4.16737e-13
2.88828e-14
1.80001e-15
1.04683e-16
5.55685e-18
2.68647e-19
1.18124e-20
4.71148e-22
1.69811e-23
5.50111e-25
1.59009e-26
4.05912e-28
9.01782e-30
1.70554e-31
2.64527e-33
3.17857e-35
2.88966e-37
2.56553e-39
1.54522e-41
4.61254e-44
4.31339e-49
0.0139964
0.614972
0.988799
0.992887
0.995158
0.915192
0.31478
0.00613943
0.00118399
0.000217853
3.70675e-05
5.7816e-06
8.25895e-07
1.07891e-07
1.29163e-08
1.42191e-09
1.649e-10
1.9792e-11
3.78729e-12
4.24771e-13
2.97558e-14
1.91585e-15
1.15189e-16
6.33762e-18
3.18397e-19
1.45761e-20
6.06817e-22
2.28543e-23
7.73666e-25
2.34142e-26
6.288e-28
1.48224e-29
3.01848e-31
5.18603e-33
7.23536e-35
7.70845e-37
5.59494e-39
2.40627e-41
7.24458e-44
6.99494e-49
0.0310302
0.649331
0.983582
0.987399
0.988187
0.793914
0.183538
0.00447414
0.000870494
0.000163106
2.73921e-05
4.29793e-06
6.19926e-07
8.21094e-08
1.00017e-08
1.12195e-09
1.38897e-10
1.72929e-11
3.52752e-12
3.88889e-13
2.73141e-14
1.81223e-15
1.11323e-16
6.23984e-18
3.18822e-19
1.48418e-20
6.27443e-22
2.4087e-23
8.39895e-25
2.63921e-26
7.41001e-28
1.83896e-29
3.97908e-31
7.37261e-33
1.14026e-34
1.4166e-36
1.32695e-38
8.42569e-41
2.74021e-43
1.00584e-46
0.0737065
0.742462
0.98244
0.98314
0.973451
0.574367
0.065232
0.00289251
0.000593607
0.000109371
1.7808e-05
2.8083e-06
4.08293e-07
5.47068e-08
6.75945e-09
7.70696e-10
1.03846e-10
1.39133e-11
2.91207e-12
3.06395e-13
2.14374e-14
1.46871e-15
9.26784e-17
5.3444e-18
2.81492e-19
1.35218e-20
5.91596e-22
2.34766e-23
8.39699e-25
2.6998e-26
7.74479e-28
1.96404e-29
4.34854e-31
8.26105e-33
1.31154e-34
1.68018e-36
1.64171e-38
1.10676e-40
4.49669e-43
6.44806e-46
0.147809
0.859623
0.982341
0.982419
0.943651
0.367276
0.0157864
0.0017332
0.000371389
6.59224e-05
1.05374e-05
1.66667e-06
2.43654e-07
3.293e-08
4.11439e-09
4.83497e-10
6.99495e-11
1.35726e-11
2.23e-12
2.04495e-13
1.50547e-14
1.0524e-15
6.74827e-17
3.95554e-18
2.11929e-19
1.03693e-20
4.6256e-22
1.87608e-23
6.89033e-25
2.2777e-26
6.73968e-28
1.7706e-29
4.08377e-31
8.14269e-33
1.37999e-34
1.9277e-36
2.12163e-38
1.71556e-40
8.80835e-43
2.08951e-45
0.322602
0.879983
0.933941
0.933662
0.729231
0.180932
0.0071693
0.000970154
0.000206368
3.71699e-05
5.91804e-06
9.25897e-07
1.35668e-07
1.84219e-08
2.31656e-09
3.07891e-10
4.45044e-11
1.09405e-11
1.54464e-12
1.28437e-13
9.71559e-15
6.87805e-16
4.45449e-17
2.6371e-18
1.42731e-19
7.05705e-21
3.18232e-22
1.30571e-23
4.85848e-25
1.63191e-26
4.91787e-28
1.31908e-29
3.11589e-31
6.39191e-33
1.11343e-34
1.60166e-36
1.82625e-38
1.54261e-40
8.4996e-43
2.24706e-45
0.685171
0.860343
0.698074
0.417935
0.132715
0.0391941
0.0081289
0.00055372
0.000109335
2.01107e-05
3.20483e-06
4.93513e-07
7.21817e-08
9.79094e-09
1.23486e-09
1.87114e-10
2.99182e-11
7.79008e-12
9.75105e-13
7.66745e-14
5.8983e-15
4.19414e-16
2.72624e-17
1.62007e-18
8.80462e-20
4.37342e-21
1.98261e-22
8.18396e-24
3.06612e-25
1.03801e-26
3.15679e-28
8.55681e-30
2.04581e-31
4.25397e-33
7.54561e-35
1.11057e-36
1.30174e-38
1.13714e-40
6.55573e-43
1.82817e-45
0.84633
0.846261
0.766467
0.186785
0.0215075
0.00580467
0.00227973
0.000366727
6.16725e-05
1.06081e-05
1.69037e-06
2.5564e-07
3.70751e-08
5.00094e-09
6.76786e-10
1.07879e-10
2.75875e-11
5.36468e-12
5.48747e-13
4.46597e-14
3.44192e-15
2.43972e-16
1.58021e-17
9.35884e-19
5.07139e-20
2.51328e-21
1.13763e-22
4.6933e-24
1.75921e-25
5.9657e-27
1.81973e-28
4.95479e-30
1.19197e-31
2.49876e-33
4.47841e-35
6.67877e-37
7.95827e-39
7.09523e-41
4.18961e-43
1.20297e-45
0.845541
0.846001
0.846174
0.633304
0.0815085
0.00315106
0.000706975
0.000144197
2.95869e-05
5.2778e-06
8.60161e-07
1.28887e-07
1.84297e-08
2.46074e-09
3.79172e-10
6.40122e-11
2.07723e-11
3.43498e-12
3.14964e-13
2.57275e-14
1.96519e-15
1.37807e-16
8.82853e-18
5.17282e-19
2.77448e-20
1.36193e-21
6.11168e-23
2.50227e-24
9.31933e-26
3.14416e-27
9.55539e-29
2.5962e-30
6.24292e-32
1.31059e-33
2.3572e-35
3.53604e-37
4.24965e-39
3.83305e-41
2.29745e-43
6.71286e-46
0.821048
0.845312
0.840803
0.837942
0.473053
0.0381278
0.000761968
8.36144e-05
1.94009e-05
3.19778e-06
4.88965e-07
7.14462e-08
9.75447e-09
1.33658e-09
2.18226e-10
4.697e-11
1.41387e-11
2.09204e-12
1.85557e-13
1.49192e-14
1.11811e-15
7.69273e-17
4.83491e-18
2.78058e-19
1.46493e-20
7.06976e-22
3.12228e-23
1.25955e-24
4.62804e-26
1.54262e-27
4.63878e-29
1.24911e-30
2.98203e-32
6.22688e-34
1.11627e-35
1.67281e-37
2.01346e-39
1.82408e-41
1.1016e-43
3.25071e-46
0.631084
0.84129
0.837899
0.835833
0.82932
0.211363
0.00139618
0.000184112
1.53958e-05
3.31295e-06
4.3964e-07
5.60482e-08
6.83416e-09
8.913e-10
1.42894e-10
3.61425e-11
9.78404e-12
1.31922e-12
1.12201e-13
8.73911e-15
6.37256e-16
4.26276e-17
2.60675e-18
1.46054e-19
7.50583e-21
3.53764e-22
1.52776e-23
6.03445e-25
2.17397e-26
7.11497e-28
2.10393e-29
5.58003e-31
1.31432e-32
2.71271e-34
4.81628e-36
7.16397e-38
8.58042e-40
7.75802e-42
4.69257e-44
1.39166e-46
)
;

boundaryField
{
    leftWall
    {
        type            zeroGradient;
    }
    rightWall
    {
        type            zeroGradient;
    }
    lowerWall
    {
        type            zeroGradient;
    }
    atmosphere
    {
        type            inletOutlet;
        inletValue      nonuniform 0();
        value           nonuniform 0();
    }
    defaultFaces
    {
        type            empty;
    }
    procBoundary1to0
    {
        type            processor;
        value           nonuniform List<scalar> 
44
(
0.859475
0.965656
0.999937
0.999994
0.999999
1
1
1
1
1
1
1
1
1
1
1
1
1
1
1
1
1
1
1
1.00012
0.276358
0.00323468
0.000372606
3.19596e-05
3.23055e-06
3.25657e-07
2.97234e-08
3.09777e-09
1.18415e-09
6.46294e-09
2.10177e-08
3.7378e-09
2.19516e-09
1.22132e-08
4.01057e-08
9.1501e-09
9.62518e-09
2.47158e-08
2.3787e-08
)
;
    }
    procBoundary1to3
    {
        type            processor;
        value           nonuniform List<scalar> 
45
(
2.59479e-07
2.38113e-06
0.000199292
0.000484004
0.000386648
0.116535
0.674548
0.835545
0.806236
0.723778
0.273441
0.00309316
0.000247549
3.2018e-05
2.67686e-06
4.67639e-07
5.32838e-08
5.80098e-09
6.96877e-10
1.05348e-10
2.87387e-11
7.03509e-12
8.31132e-13
6.61955e-14
4.98808e-15
3.51416e-16
2.26921e-17
1.34267e-18
7.29492e-20
3.64171e-21
1.66998e-22
7.02734e-24
2.70852e-25
9.5348e-27
3.0535e-28
8.84765e-30
2.30264e-31
5.33008e-33
1.08287e-34
1.8957e-36
2.78566e-38
3.30339e-40
2.96519e-42
1.78689e-44
5.3012e-47
)
;
    }
}


// ************************************************************************* //
