/*--------------------------------*- C++ -*----------------------------------*\
| =========                 |                                                 |
| \\      /  F ield         | OpenFOAM: The Open Source CFD Toolbox           |
|  \\    /   O peration     | Version:  5.0                                   |
|   \\  /    A nd           | Web:      www.OpenFOAM.org                      |
|    \\/     M anipulation  |                                                 |
\*---------------------------------------------------------------------------*/
FoamFile
{
    version     2.0;
    format      ascii;
    class       surfaceScalarField;
    location    "0.3";
    object      alphaPhi10;
}
// * * * * * * * * * * * * * * * * * * * * * * * * * * * * * * * * * * * * * //

dimensions      [0 3 -1 0 0 0 0];

internalField   nonuniform List<scalar> 
3731
(
-1.30092e-05
-2.40246e-06
-1.39957e-05
-5.33177e-06
1.4717e-06
-1.93275e-05
4.21911e-06
9.77116e-06
-1.51309e-05
1.03935e-05
2.04593e-05
-4.73736e-06
1.41943e-05
3.26663e-05
9.45697e-06
1.69178e-05
4.58681e-05
2.63748e-05
1.94825e-05
5.99003e-05
4.58573e-05
2.29227e-05
7.45675e-05
6.87799e-05
2.88838e-05
8.89909e-05
9.76638e-05
3.85951e-05
0.000101733
0.000136259
-5.70261e-30
6.55454e-31
-1.36999e-28
8.48102e-29
-2.22359e-28
1.56631e-28
-7.34838e-29
7.46227e-29
-1.1144e-29
1.03263e-29
-9.05737e-31
7.09241e-31
-4.62011e-32
1.90246e-32
-2.40755e-33
-7.1073e-34
-2.89877e-34
-2.23416e-34
-5.36854e-35
-4.29808e-35
-8.74928e-36
-9.18913e-36
-1.17672e-36
-1.70174e-36
-1.33048e-37
-2.62602e-37
-1.28635e-38
-3.43949e-38
-1.08005e-39
-3.90517e-39
-7.9421e-41
-3.92518e-40
-5.0334e-42
-3.55449e-41
-2.65313e-43
-2.8703e-42
-1.05449e-44
-2.08551e-43
-1.77395e-46
-1.38604e-44
1.79223e-47
-8.20746e-46
2.42961e-48
-4.36054e-47
1.85669e-49
-2.0736e-48
1.0858e-50
-8.45003e-50
5.26602e-52
-3.007e-51
2.16273e-53
-8.58116e-53
7.55957e-55
-1.60193e-54
2.26095e-56
-2.83488e-57
5.78848e-58
3.48034e-58
1.23933e-59
1.75579e-59
2.16565e-61
5.62172e-61
2.96422e-63
1.36236e-62
3.01798e-65
2.51121e-64
2.10557e-67
3.48705e-66
8.72283e-70
3.39137e-68
1.5014e-72
2.10418e-70
-5.64475e-76
7.16463e-73
-2.36267e-78
9.43243e-76
-1.9009e-81
2.35962e-80
-2.10522e-80
-2.56519e-27
1.2714e-27
-1.37045e-26
2.04165e-26
-2.12829e-26
3.40297e-26
-9.60671e-27
2.3601e-26
-1.5975e-27
4.08821e-27
-1.71715e-28
3.18646e-28
-1.16592e-29
1.13513e-29
-9.06009e-31
-3.26481e-31
-9.51171e-32
-1.10686e-31
-1.15765e-32
-1.8866e-32
-1.34074e-33
-2.92525e-33
-1.37737e-34
-3.95594e-34
-1.24939e-35
-4.60289e-35
-1.01083e-36
-4.68615e-36
-7.36966e-38
-4.2625e-37
-4.85984e-39
-3.52459e-38
-2.86918e-40
-2.67697e-39
-1.48245e-41
-1.85957e-40
-6.38048e-43
-1.18438e-41
-2.00354e-44
-6.90651e-43
-1.83873e-46
-3.62854e-44
3.37655e-47
-1.71185e-45
3.41247e-48
-7.27163e-47
2.14708e-49
-2.73708e-48
1.05558e-50
-8.92654e-50
4.31753e-52
-2.41478e-51
1.50055e-53
-4.81944e-53
4.43745e-55
-4.08784e-55
1.11307e-56
1.68078e-56
2.33869e-58
1.03938e-57
4.02729e-60
3.44259e-59
5.52947e-62
8.27177e-61
5.81871e-64
1.51692e-62
4.43446e-66
2.11134e-64
2.24034e-68
2.13154e-66
6.41481e-71
1.45582e-68
7.25545e-74
5.95706e-71
-1.09217e-77
1.13091e-73
-3.57448e-80
3.77336e-77
-1.81552e-79
-1.72068e-25
1.34367e-25
-8.24235e-25
1.39011e-24
-1.18511e-24
2.29778e-24
-6.0776e-25
1.79488e-24
-1.0808e-25
3.35815e-25
-1.37487e-26
2.8368e-26
-1.20415e-27
1.16764e-27
-1.13393e-28
-6.22226e-29
-1.14511e-29
-2.01806e-29
-1.14399e-30
-3.18676e-30
-1.0401e-31
-4.07645e-31
-8.37681e-33
-4.33842e-32
-6.02239e-34
-3.93452e-33
-3.92903e-35
-3.13852e-34
-2.3572e-36
-2.26565e-35
-1.3059e-37
-1.51122e-36
-6.63027e-39
-9.40855e-38
-3.02414e-40
-5.46723e-39
-1.19616e-41
-2.95797e-40
-3.81499e-43
-1.48033e-41
-7.58577e-45
-6.77755e-43
1.06122e-46
-2.8169e-44
2.15115e-47
-1.05492e-45
1.42288e-48
-3.5856e-47
6.79883e-50
-1.06781e-48
2.65144e-51
-2.69029e-50
8.74785e-53
-5.26765e-52
2.46633e-54
-5.84849e-54
5.94231e-56
7.91261e-56
1.21325e-57
6.73568e-57
2.06464e-59
2.2861e-58
2.86768e-61
5.46975e-60
3.15796e-63
1.00267e-61
2.65029e-65
1.41855e-63
1.598e-67
1.50806e-65
6.31498e-70
1.14081e-67
1.39382e-72
5.56933e-70
1.1806e-75
1.42969e-72
7.10101e-80
9.50154e-76
-7.28725e-79
-5.55805e-24
5.80007e-24
-3.04137e-23
5.58095e-23
-4.29663e-23
9.60668e-23
-2.42546e-23
7.87596e-23
-4.87328e-24
1.57314e-23
-7.32198e-25
1.49478e-24
-7.94901e-26
6.68907e-26
-8.2647e-27
-7.00772e-27
-8.18065e-28
-2.14519e-27
-7.1831e-29
-3.27414e-28
-5.45512e-30
-3.59187e-29
-3.60517e-31
-3.12219e-30
-2.11892e-32
-2.27358e-31
-1.13416e-33
-1.45645e-32
-5.6296e-35
-8.51415e-34
-2.60852e-36
-4.64779e-35
-1.12283e-37
-2.3918e-36
-4.41883e-39
-1.16108e-37
-1.54563e-40
-5.30267e-39
-4.55022e-42
-2.26603e-40
-9.67411e-44
-8.98266e-42
-3.46637e-46
-3.2739e-43
1.06545e-46
-1.08616e-44
7.47263e-48
-3.30547e-46
3.44146e-49
-8.9643e-48
1.26844e-50
-2.09049e-49
3.94334e-52
-3.9148e-51
1.05163e-53
-4.73654e-53
2.41391e-55
1.73068e-55
4.74723e-57
3.01543e-56
7.89518e-59
1.04934e-57
1.09252e-60
2.47945e-59
1.23039e-62
4.48869e-61
1.09376e-64
6.35283e-63
7.33887e-67
6.91742e-65
3.46003e-69
5.54654e-67
1.00188e-71
3.0063e-69
1.3486e-74
9.08469e-72
4.77618e-78
9.4683e-75
-3.24262e-78
-1.38878e-22
1.74701e-22
-8.70549e-22
1.71831e-21
-1.3252e-21
3.1086e-21
-7.5493e-22
2.59014e-21
-1.57889e-22
5.20263e-22
-2.48625e-23
5.0236e-23
-3.09546e-24
1.97706e-24
-3.65435e-25
-4.4968e-25
-3.66387e-26
-1.38557e-25
-2.94025e-27
-2.0394e-26
-1.95727e-28
-1.98447e-27
-1.11381e-29
-1.50109e-28
-5.58673e-31
-9.36527e-30
-2.54158e-32
-5.03775e-31
-1.07172e-33
-2.44969e-32
-4.22785e-35
-1.11489e-33
-1.55623e-36
-4.82068e-35
-5.28107e-38
-1.98192e-36
-1.61477e-39
-7.72188e-38
-4.24886e-41
-2.83764e-39
-8.53217e-43
-9.76814e-41
-6.45412e-45
-3.12484e-42
5.02747e-46
-9.20276e-44
3.62699e-47
-2.50703e-45
1.58668e-48
-6.18479e-47
5.47985e-50
-1.33084e-48
1.59722e-51
-2.35539e-50
4.01406e-53
-2.9028e-52
8.74804e-55
-2.80249e-55
1.64983e-56
1.12317e-55
2.66437e-58
4.03551e-57
3.63558e-60
9.393e-59
4.11475e-62
1.66992e-60
3.76256e-64
2.34115e-62
2.67097e-66
2.56458e-64
1.37476e-68
2.11214e-66
4.51057e-71
1.2033e-68
7.35028e-74
4.03272e-71
3.89493e-77
5.34806e-74
4.50773e-78
-3.35614e-21
4.81858e-21
-1.92435e-20
4.08377e-20
-2.69205e-20
6.67076e-20
-1.27414e-20
5.17107e-20
-2.72646e-21
8.11618e-21
-4.31087e-22
7.93827e-22
-6.5153e-23
2.06372e-23
-8.73402e-24
-1.27286e-23
-8.83303e-25
-3.64718e-24
-6.81479e-26
-5.05917e-25
-4.28852e-27
-4.74822e-26
-2.27841e-28
-3.53779e-27
-1.04564e-29
-2.20097e-28
-4.26044e-31
-1.14584e-29
-1.58487e-32
-5.10111e-31
-5.47491e-34
-2.04353e-32
-1.76111e-35
-7.65194e-34
-5.23182e-37
-2.72257e-35
-1.40669e-38
-9.23064e-37
-3.27932e-40
-2.97043e-38
-5.91924e-42
-9.01327e-40
-4.39824e-44
-2.5601e-41
2.57214e-45
-6.73481e-43
1.74446e-46
-1.65877e-44
7.05877e-48
-3.73497e-46
2.25959e-49
-7.41932e-48
6.13996e-51
-1.23426e-49
1.44884e-52
-1.49995e-51
2.98881e-54
-5.0271e-54
5.38414e-56
3.74668e-55
8.39669e-58
1.39794e-56
1.11979e-59
3.1975e-58
1.25546e-61
5.55822e-60
1.15392e-63
7.65858e-62
8.35137e-66
8.32279e-64
4.42624e-68
6.87268e-66
1.51192e-70
3.96953e-68
2.63945e-73
1.39959e-70
1.58646e-76
2.09245e-73
9.32432e-77
-5.94016e-20
9.22713e-20
-2.67345e-19
5.80864e-19
-3.38447e-19
7.95778e-19
-9.49702e-20
5.1551e-19
-2.26828e-20
5.08536e-20
-4.06162e-21
5.43939e-21
-6.70349e-22
-6.82742e-24
-9.26042e-23
-1.20333e-22
-9.45084e-24
-3.20652e-23
-7.52239e-25
-4.40637e-24
-4.83828e-26
-4.38202e-25
-2.61298e-27
-3.43299e-26
-1.20609e-28
-2.28711e-27
-4.8049e-30
-1.3085e-28
-1.68844e-31
-6.20456e-30
-5.35899e-33
-2.49076e-31
-1.5583e-34
-8.83071e-33
-4.15256e-36
-2.87343e-34
-9.97264e-38
-8.78067e-36
-2.06493e-39
-2.53987e-37
-3.24484e-41
-6.94562e-39
-1.59851e-43
-1.78613e-40
1.47768e-44
-4.24657e-42
8.46808e-46
-9.66351e-44
3.08675e-47
-2.00705e-45
9.07641e-49
-3.704e-47
2.29017e-50
-5.79652e-49
5.06236e-52
-6.83711e-51
9.86373e-54
-3.13088e-53
1.69247e-55
1.16654e-54
2.5371e-57
4.53042e-56
3.28227e-59
1.01552e-57
3.60246e-61
1.71937e-59
3.26777e-63
2.31347e-61
2.34429e-65
2.46704e-63
1.23433e-67
2.00484e-65
4.21565e-70
1.15822e-67
7.21328e-73
4.11317e-70
4.49619e-76
6.49096e-73
4.77028e-76
-6.29328e-19
1.07803e-18
-1.74574e-18
4.03461e-18
-1.59332e-18
4.20058e-18
-4.52241e-19
1.4169e-18
-1.33472e-19
2.11014e-19
-2.67397e-20
2.31183e-20
-3.71937e-21
-1.31266e-21
-4.93779e-22
-6.39519e-22
-5.32201e-23
-1.40722e-22
-4.67697e-24
-2.25357e-23
-3.13089e-25
-2.53281e-24
-1.689e-26
-2.04746e-25
-7.9014e-28
-1.30696e-26
-3.25293e-29
-7.48897e-28
-1.16517e-30
-3.85611e-29
-3.64919e-32
-1.70547e-30
-1.01321e-33
-6.42247e-32
-2.51328e-35
-2.11082e-33
-5.50833e-37
-6.24914e-35
-1.01557e-38
-1.70589e-36
-1.31801e-40
-4.34558e-38
1.21208e-43
-1.0324e-39
8.74679e-44
-2.3001e-41
4.04716e-45
-4.89153e-43
1.31241e-46
-9.51222e-45
3.53733e-48
-1.65061e-46
8.29317e-50
-2.4477e-48
1.71917e-51
-2.7891e-50
3.16598e-53
-1.44113e-52
5.17211e-55
3.48212e-54
7.43591e-57
1.40001e-55
9.28813e-59
3.0683e-57
9.89957e-61
5.05017e-59
8.75213e-63
6.61277e-61
6.12088e-65
6.87451e-63
3.14427e-67
5.46287e-65
1.0494e-69
3.11942e-67
1.76876e-72
1.10021e-69
1.18339e-75
1.92297e-72
1.78242e-75
-5.25323e-18
1.05212e-17
-8.90972e-18
2.01581e-17
-5.18404e-18
1.45342e-17
-2.07206e-18
3.51429e-18
-7.99368e-19
8.04024e-19
-1.60715e-19
7.10291e-20
-2.40937e-20
-2.1643e-20
-3.33321e-21
-9.06633e-21
-3.24869e-22
-1.86298e-21
-3.35857e-23
-1.98143e-22
-2.13693e-24
-2.58603e-23
-9.32632e-26
-1.83417e-24
-3.62795e-27
-8.41192e-26
-1.41227e-28
-3.46239e-27
-5.10192e-30
-1.55852e-28
-1.63188e-31
-6.90266e-30
-4.54406e-33
-2.77376e-31
-1.09564e-34
-9.77703e-33
-2.24796e-36
-3.02789e-34
-3.65407e-38
-8.37548e-36
-3.2847e-40
-2.09885e-37
6.36804e-42
-4.77492e-39
4.83345e-43
-1.04329e-40
1.81359e-44
-2.11392e-42
5.27591e-46
-3.91067e-44
1.3121e-47
-6.46868e-46
2.87752e-49
-9.18743e-48
5.6278e-51
-1.01383e-49
9.84284e-53
-5.46032e-52
1.53598e-54
1.01455e-53
2.121e-56
4.15787e-55
2.55669e-58
8.90364e-57
2.63894e-60
1.42652e-58
2.26191e-62
1.8195e-60
1.53204e-64
1.84429e-62
7.62009e-67
1.43356e-64
2.44826e-69
8.03294e-67
4.03615e-72
2.77955e-69
2.9948e-75
5.27179e-72
5.57511e-75
-3.43444e-17
6.65964e-17
-2.83745e-17
7.53993e-17
-1.28325e-17
2.38701e-17
-7.712e-18
7.68635e-18
-4.28212e-18
2.40119e-18
-2.00218e-18
-1.37804e-19
-6.33607e-19
-1.12323e-18
-9.10267e-20
-6.40663e-19
-5.34274e-21
-9.94841e-20
-5.68881e-22
-4.73319e-21
-3.14522e-23
-5.95983e-22
-9.68892e-25
-3.55508e-23
-2.21252e-26
-1.19568e-24
-5.82812e-28
-2.83017e-26
-1.74822e-29
-7.64558e-28
-5.22561e-31
-2.51515e-29
-1.41955e-32
-8.94226e-31
-3.32712e-34
-3.07675e-32
-6.36558e-36
-9.72612e-34
-8.44205e-38
-2.78364e-35
-4.92664e-42
-7.19427e-37
5.03828e-41
-1.72227e-38
2.31126e-42
-3.80551e-40
7.3487e-44
-7.64086e-42
1.94752e-45
-1.37893e-43
4.522e-47
-2.2068e-45
9.37629e-49
-3.02753e-47
1.74749e-50
-3.24224e-49
2.92849e-52
-1.739e-51
4.3978e-54
2.91148e-53
5.86801e-56
1.18587e-54
6.86032e-58
2.485e-56
6.88646e-60
3.89681e-58
5.74884e-62
4.87568e-60
3.78717e-64
4.8639e-62
1.81705e-66
3.72282e-64
5.55494e-69
2.04359e-66
8.93498e-72
6.8842e-69
1.06281e-74
1.40397e-71
1.62124e-74
5.96112e-05
0.000105165
0.000130889
6.49807e-05
7.60711e-05
0.000102819
0.000122538
8.44223e-05
8.49288e-05
9.91699e-05
0.000113899
9.35684e-05
9.06559e-05
9.51207e-05
0.000106722
9.78323e-05
9.45272e-05
9.09895e-05
0.000100974
0.000100275
9.68089e-05
8.69621e-05
9.6167e-05
0.000101616
9.77192e-05
8.3086e-05
9.19133e-05
0.000101973
9.74237e-05
7.93421e-05
8.79714e-05
0.000101366
9.60192e-05
7.56988e-05
8.41989e-05
9.97918e-05
9.36139e-05
8.05107e-05
9.73021e-05
7.68588e-05
9.40552e-05
7.32365e-05
9.03588e-05
6.9693e-05
8.67219e-05
6.33084e-05
8.3239e-05
2.04332e-05
6.7493e-05
1.80839e-06
1.71508e-05
2.97657e-07
2.04192e-06
4.80533e-08
3.26159e-07
6.94621e-09
5.08737e-08
9.99478e-10
7.30252e-09
1.33302e-10
1.0313e-09
1.6288e-11
1.35194e-10
1.37218e-12
1.67625e-11
3.40942e-13
3.22089e-12
7.49041e-13
2.99314e-12
5.65469e-13
8.52006e-13
6.64513e-13
2.82426e-13
2.20855e-12
8.68945e-13
9.85669e-12
3.07684e-12
6.36551e-12
3.35552e-11
-1.41152e-12
5.99093e-11
-1.97186e-11
6.01184e-12
3.00444e-11
-5.11033e-17
6.31591e-05
-9.14863e-17
4.03829e-17
-2.50657e-16
1.69814e-16
-2.91414e-17
-1.47404e-16
4.37745e-05
0.000103399
2.10665e-06
4.09194e-05
-1.15225e-16
2.10665e-06
6.089e-17
-1.50278e-16
8.67077e-05
0.000110265
3.40926e-05
8.90807e-05
2.65333e-06
3.10334e-05
2.65188e-06
1.56618e-09
0.000100689
0.000107396
8.47676e-05
0.000104982
2.40998e-05
8.13286e-05
2.09908e-05
2.76428e-06
0.000105033
0.00010264
0.000103799
0.000106214
8.21156e-05
0.000102884
7.78735e-05
1.82691e-05
0.000106105
9.81508e-05
0.000108714
0.000103604
0.000105506
0.000106055
0.000101511
7.79684e-05
0.000105979
9.41449e-05
0.000109283
0.0001003
0.000110185
0.000105167
0.000106765
0.000104846
0.000105047
9.04631e-05
0.000108375
9.69732e-05
0.000110666
0.000102873
0.000107478
0.000109924
0.000103309
8.69462e-05
0.000106593
9.36889e-05
0.000109366
0.000100098
0.000105985
0.00011087
0.00010076
8.34883e-05
0.000104055
9.03938e-05
0.000107035
9.7119e-05
0.000103653
0.000109365
9.7508e-05
8.00355e-05
0.000100855
8.70464e-05
0.000103984
9.399e-05
0.000100925
0.000106712
9.38074e-05
7.65869e-05
9.71991e-05
8.36547e-05
0.000100438
9.07507e-05
9.79637e-05
0.0001034
9.00847e-05
7.32244e-05
9.3442e-05
8.02973e-05
9.67012e-05
8.74913e-05
9.49061e-05
9.97586e-05
8.68569e-05
6.96071e-05
9.00647e-05
7.70916e-05
9.31828e-05
8.43732e-05
9.19355e-05
9.61531e-05
8.26756e-05
5.43717e-05
8.7064e-05
7.26918e-05
9.02429e-05
8.11919e-05
8.92199e-05
9.29575e-05
5.91899e-05
7.73865e-06
7.98037e-05
4.66312e-05
8.71702e-05
7.37661e-05
8.60862e-05
9.02938e-05
8.58189e-06
1.21275e-06
4.46598e-05
5.9574e-06
7.79137e-05
3.56233e-05
7.66807e-05
8.72376e-05
1.30675e-06
2.24091e-07
5.92585e-06
1.37657e-06
3.314e-05
7.40566e-06
3.52364e-05
8.05147e-05
2.41416e-07
3.67865e-08
1.37582e-06
2.57396e-07
7.05609e-06
1.76203e-06
1.71547e-05
4.99157e-05
3.86314e-08
5.99331e-09
2.48238e-07
4.56776e-08
1.66773e-06
3.52345e-07
4.46065e-06
1.44356e-05
6.14668e-09
9.22329e-10
4.38748e-08
7.93637e-09
3.29251e-07
6.35829e-08
1.04621e-06
3.76601e-06
9.20456e-10
1.36258e-10
7.11412e-09
1.13775e-09
6.12068e-08
8.95862e-09
1.42847e-07
9.76558e-07
1.16627e-10
1.81924e-11
9.4172e-10
1.97468e-10
8.23421e-09
2.21382e-09
3.73546e-08
1.15214e-07
1.71924e-11
1.49934e-12
1.78918e-10
4.65744e-11
1.82806e-09
6.17771e-10
1.3576e-08
2.59629e-08
4.45133e-12
2.00876e-14
3.88687e-11
1.32301e-11
5.29468e-10
1.32867e-10
3.30384e-09
1.08931e-08
4.45376e-13
1.70596e-13
-3.82471e-12
-4.12942e-12
9.77519e-11
3.12904e-11
8.34439e-10
2.58859e-09
3.56609e-13
1.42244e-13
-2.51364e-11
-2.64605e-11
1.13627e-09
3.48567e-10
4.78551e-09
2.41014e-08
6.75281e-13
4.07165e-13
-3.77107e-11
-4.77548e-11
5.32751e-09
2.65371e-09
3.94659e-06
5.51534e-06
5.84863e-13
3.01582e-12
-3.27931e-11
-5.82088e-11
1.93647e-09
6.84445e-10
2.84647e-05
1.6329e-05
3.31823e-12
3.32528e-11
-2.3843e-11
-4.29852e-11
4.8705e-10
1.73552e-10
5.08223e-05
3.12287e-05
1.813e-10
4.92039e-10
1.38023e-11
1.24512e-10
1.27083e-10
6.1955e-11
4.11079e-05
3.0327e-05
3.15124e-10
4.25503e-10
2.18037e-09
3.10787e-09
2.05978e-09
3.92526e-10
1.00594e-05
2.15479e-05
-2.45567e-09
1.09641e-09
2.76732e-09
8.08156e-06
-1.16598e-16
1.29039e-16
-5.23429e-17
8.74226e-17
-3.81609e-17
3.67899e-17
-3.96506e-17
2.167e-17
-4.58e-17
8.81063e-18
-3.76351e-17
-1.53877e-17
-1.94934e-17
-3.22354e-17
-3.10316e-18
-2.47125e-17
-1.38028e-19
-3.62019e-18
-1.3899e-20
-1.64605e-19
-6.84833e-22
-2.00117e-20
-1.8329e-23
-9.81145e-22
-3.04347e-25
-2.90424e-23
-4.81507e-27
-5.43196e-25
-8.58805e-29
-9.41869e-27
-1.78216e-30
-1.78328e-28
-3.90366e-32
-4.01195e-30
-7.85521e-34
-1.03819e-31
-1.22959e-35
-2.80109e-33
-7.29828e-38
-7.42109e-35
4.52483e-39
-1.91398e-36
2.63332e-40
-4.84517e-38
9.39594e-42
-1.15901e-39
2.68726e-43
-2.39532e-41
6.64184e-45
-4.32436e-43
1.46017e-46
-6.82035e-45
2.8922e-48
-9.10871e-47
5.18499e-50
-9.40047e-49
8.40861e-52
-4.75943e-51
1.22793e-53
8.3046e-53
1.59891e-55
3.25681e-54
1.82956e-57
6.69362e-56
1.80275e-59
1.03522e-57
1.48245e-61
1.284e-59
9.66118e-64
1.27874e-61
4.57668e-66
9.86369e-64
1.35162e-68
5.45168e-66
2.12459e-71
1.82319e-68
3.22188e-74
3.94645e-71
4.84338e-74
-1.33272e-16
2.67255e-16
-1.19563e-16
1.15142e-16
-1.35139e-16
8.87755e-17
-1.72524e-16
6.6811e-17
-2.03978e-16
8.22189e-18
-2.44046e-16
-4.96809e-17
-1.82398e-16
-1.59282e-16
-3.97947e-17
-1.86893e-16
-2.8167e-18
-4.29093e-17
-2.9388e-19
-4.36903e-18
-1.37899e-20
-5.40668e-19
-3.4928e-22
-2.56802e-20
-5.3936e-24
-6.8231e-22
-7.25935e-26
-1.20617e-23
-9.42522e-28
-1.90411e-25
-1.24356e-29
-2.91646e-27
-1.68272e-31
-4.61581e-29
-2.08523e-33
-7.91785e-31
-1.40133e-35
-1.47702e-32
4.18832e-37
-2.945e-34
2.69967e-38
-6.03201e-36
1.0181e-39
-1.59026e-37
3.14372e-41
-2.93573e-39
8.33098e-43
-5.46061e-41
1.97917e-44
-9.99724e-43
4.22566e-46
-1.66547e-44
8.13841e-48
-2.4026e-46
1.41703e-49
-2.64829e-48
2.2348e-51
-1.15635e-50
3.1851e-53
2.30243e-52
4.0689e-55
8.42148e-54
4.59282e-57
1.69573e-55
4.49083e-59
2.60026e-57
3.69199e-61
3.22673e-59
2.43383e-63
3.25141e-61
1.18711e-65
2.58394e-63
3.69838e-68
1.51226e-65
8.50875e-71
5.6398e-68
1.10055e-73
1.23749e-70
1.58488e-73
-1.04927e-16
1.61258e-09
-4.91313e-16
5.14349e-16
-5.60825e-16
4.90584e-16
-4.02449e-16
4.05163e-16
-3.65502e-16
-8.94942e-17
-6.74523e-16
-1.34041e-16
-5.44158e-16
-3.26551e-16
-2.03687e-16
-3.57196e-16
-3.50302e-17
-2.21184e-16
-3.97381e-18
-6.33546e-17
-2.29936e-19
-7.40902e-18
-5.87562e-21
-5.42323e-19
-8.88657e-23
-1.48915e-20
-1.16397e-24
-2.53578e-22
-1.41376e-26
-4.00708e-24
-1.60126e-28
-6.12586e-26
-1.58699e-30
-9.45879e-28
-8.49735e-33
-1.53925e-29
1.84677e-34
-2.62946e-31
8.56597e-36
-4.26287e-33
2.08338e-37
-6.02795e-35
4.21931e-39
-7.47876e-37
8.80309e-41
-9.12311e-39
2.00617e-42
-1.09103e-40
4.64411e-44
-1.3632e-42
1.00687e-45
-1.77688e-44
1.98188e-47
-2.24282e-46
3.50554e-49
-3.19546e-48
5.5601e-51
-1.56417e-50
7.89971e-53
6.01784e-52
1.00089e-54
2.04666e-53
1.1216e-56
4.0702e-55
1.0921e-58
6.23457e-57
8.99448e-61
7.78343e-59
6.01053e-63
7.96357e-61
3.04307e-65
6.53143e-63
1.03276e-67
4.07318e-65
1.88466e-70
1.73754e-67
3.71192e-73
4.08544e-70
5.29729e-73
1.93861e-07
2.59141e-06
-1.93925e-16
1.94211e-07
-7.86922e-16
1.29176e-15
-2.92641e-15
8.99083e-15
-1.25804e-15
5.64274e-17
-2.80306e-15
-3.1673e-15
-1.3133e-15
-2.85394e-15
-5.46483e-16
-6.78803e-16
-2.05024e-16
-5.25681e-16
-2.70553e-17
-4.02405e-16
-2.43848e-18
-4.80539e-17
-7.74325e-20
-6.03351e-18
-1.20524e-21
-2.40713e-19
-1.5834e-23
-4.39981e-21
-1.8811e-25
-7.35771e-23
-1.88295e-27
-1.23054e-24
-9.27484e-30
-2.12839e-26
2.92923e-31
-3.94444e-28
1.35122e-32
-7.13776e-30
3.27572e-34
-1.14824e-31
1.32048e-35
-1.5544e-33
4.83255e-37
-3.6591e-35
1.06421e-38
-7.11996e-37
1.81636e-40
-1.04211e-38
2.4974e-42
-1.24893e-40
1.8445e-44
-1.20324e-42
3.00729e-47
-6.23844e-45
1.14767e-48
-8.24901e-48
1.1566e-50
-1.62595e-50
1.6577e-52
1.45013e-51
2.0875e-54
4.57911e-53
2.36741e-56
8.93167e-55
2.3496e-58
1.37034e-56
1.98398e-60
1.73413e-58
1.3719e-62
1.8177e-60
7.31302e-65
1.54833e-62
2.71457e-67
1.02746e-64
5.78265e-70
4.90848e-67
4.67706e-73
1.43145e-69
1.79977e-72
2.59958e-06
1.80888e-05
2.27386e-07
2.52969e-06
4.54551e-09
2.23764e-07
-1.85679e-15
4.65773e-09
-6.57847e-15
2.15778e-15
-3.47919e-14
5.89322e-15
-1.10603e-14
-3.03201e-14
-2.2158e-15
-8.91595e-15
-5.75605e-16
-1.99092e-15
-1.0295e-16
-6.96809e-16
-1.35281e-17
-2.12957e-16
-6.41122e-19
-3.2605e-17
-1.16352e-20
-2.16801e-18
-1.57032e-22
-5.3202e-20
-1.72051e-24
-1.03949e-21
-7.1962e-27
-2.12428e-23
4.17849e-28
-4.49004e-25
1.99319e-29
-9.18894e-27
5.62853e-31
-1.72862e-28
1.18355e-32
-2.87424e-30
5.69464e-34
-4.12624e-32
1.69303e-35
-1.10534e-33
3.63303e-37
-1.97131e-35
6.25287e-39
-2.91092e-37
8.91256e-41
-3.58333e-39
1.05315e-42
-3.59116e-41
9.99782e-45
-2.75031e-43
6.62948e-47
-1.32187e-45
1.20687e-49
-1.47417e-49
1.46672e-51
2.6499e-50
1.2619e-53
5.28602e-52
1.09103e-55
7.2731e-54
8.82628e-58
8.38132e-56
6.3608e-60
8.39269e-58
3.93188e-62
7.31515e-60
1.96784e-64
5.4461e-62
7.25796e-67
3.31279e-64
1.66016e-69
1.54522e-66
1.56375e-72
4.89483e-69
7.45341e-72
1.36133e-05
7.76759e-05
2.0429e-06
1.39429e-05
2.17924e-07
2.02674e-06
7.3695e-09
2.12151e-07
4.64339e-15
7.40859e-09
-8.99466e-13
-1.27525e-15
-2.03847e-13
-3.67326e-13
-3.25459e-14
-1.73562e-13
-2.36521e-15
-2.77823e-14
-2.80174e-16
-1.26222e-15
-4.4313e-17
-5.39061e-16
-2.98213e-18
-1.23894e-16
-6.98078e-20
-1.12456e-17
-9.14646e-22
-4.2695e-19
-3.10906e-24
-1.09667e-20
3.8745e-25
-2.83022e-22
1.97325e-26
-6.95713e-24
6.35419e-28
-1.56202e-25
1.60318e-29
-3.14784e-27
3.31245e-31
-5.62407e-29
1.8674e-32
-8.1232e-31
5.31757e-34
-2.54715e-32
1.14167e-35
-4.73373e-34
2.02103e-37
-7.33797e-36
2.99336e-39
-9.50889e-38
3.67362e-41
-9.94567e-40
3.55709e-43
-7.75542e-42
2.22261e-45
-3.44798e-44
6.79539e-48
4.043e-47
7.45706e-50
1.70414e-48
6.77766e-52
3.18426e-50
6.26011e-54
4.36304e-52
5.81542e-56
4.95466e-54
4.62163e-58
4.81545e-56
3.08867e-60
3.99059e-58
1.67374e-62
2.77239e-60
6.91913e-65
1.56098e-62
1.94817e-67
6.71217e-65
2.7872e-70
1.9649e-67
2.91389e-70
6.72555e-05
0.000108448
8.60198e-06
6.44886e-05
1.51479e-06
8.85791e-06
1.54521e-07
1.53255e-06
4.90236e-09
1.57345e-07
-4.2049e-11
5.08378e-09
-3.07703e-12
-3.97736e-11
-2.62702e-13
-2.88515e-12
-2.32568e-14
-3.08562e-13
-1.43506e-15
-2.66693e-14
-1.1697e-16
-1.4363e-15
-8.64468e-18
-5.19005e-16
-2.27237e-19
-4.77193e-17
-5.15117e-22
-2.53059e-18
1.97512e-22
-8.98947e-20
1.11358e-23
-2.69244e-21
4.20326e-25
-7.36241e-23
1.27523e-26
-1.84141e-24
3.23953e-28
-4.1525e-26
9.3646e-30
-7.53536e-28
5.49184e-31
-1.66757e-29
1.48939e-32
-5.26495e-31
3.33911e-34
-1.05283e-32
6.30283e-36
-1.79032e-34
1.00101e-37
-2.52663e-36
1.30807e-39
-2.82696e-38
1.31013e-41
-2.25463e-40
7.28548e-44
-8.41647e-43
3.27275e-46
3.2308e-45
3.87456e-48
9.27574e-47
3.80793e-50
1.74811e-48
3.93897e-52
2.52529e-50
3.88638e-54
3.06369e-52
3.30194e-56
3.18374e-54
2.35875e-58
2.81866e-56
1.36519e-60
2.08761e-58
6.01306e-63
1.24926e-60
1.79288e-65
5.68386e-63
2.68779e-68
1.75134e-65
2.7168e-68
9.77859e-05
0.000120554
3.67199e-05
0.000100152
4.39001e-06
3.19835e-05
8.04817e-07
4.93553e-06
7.08053e-08
8.60863e-07
1.31325e-09
7.21981e-08
-1.21651e-12
1.29159e-09
-2.31456e-12
-6.39224e-12
-1.88199e-13
-2.92015e-12
-1.15721e-14
-2.3319e-13
-4.38076e-16
-1.53728e-14
-1.67808e-17
-1.35226e-15
1.04229e-19
-2.4801e-16
6.46176e-20
-1.42855e-17
3.8881e-21
-5.98604e-19
1.62977e-22
-2.00567e-20
5.85037e-24
-5.91195e-22
1.83052e-25
-1.58658e-23
5.23035e-27
-3.75839e-25
3.20865e-28
-8.73124e-27
1.22586e-29
-3.65733e-28
3.47207e-31
-9.93401e-30
8.37537e-33
-2.18613e-31
1.72168e-34
-4.08386e-33
2.98103e-36
-6.28159e-35
4.19883e-38
-7.509e-37
4.33628e-40
-6.00731e-39
1.70246e-42
-1.38833e-41
1.52888e-44
1.52069e-43
1.93526e-46
4.85029e-45
2.06461e-48
9.29647e-47
2.3871e-50
1.41668e-48
2.50791e-52
1.83176e-50
2.26608e-54
2.03127e-52
1.7195e-56
1.91829e-54
1.05491e-58
1.51301e-56
4.91194e-61
9.61868e-59
1.54304e-63
4.63482e-61
2.42695e-66
1.50669e-63
2.45398e-66
0.000108261
0.000123121
8.6638e-05
0.000121576
1.40604e-05
9.37245e-05
2.51081e-06
1.61089e-05
3.76585e-07
2.91074e-06
2.41777e-08
4.15776e-07
-4.39645e-11
2.51217e-08
-8.13998e-12
-1.00846e-10
-7.30667e-13
-1.56629e-11
-4.86168e-14
-1.26318e-12
-1.19254e-15
-8.51184e-14
1.58687e-17
-1.23713e-15
1.513e-17
-9.56709e-16
9.2719e-19
-9.79703e-17
4.63143e-20
-4.10261e-18
1.88798e-21
-1.48522e-19
6.866e-23
-4.73522e-21
3.05566e-24
-1.39948e-22
1.53876e-25
-5.3273e-24
6.61244e-27
-2.00379e-25
2.26026e-28
-6.33432e-27
6.74137e-30
-1.68945e-28
1.74385e-31
-3.93578e-30
3.87046e-33
-7.80922e-32
7.21318e-35
-1.26889e-33
1.07288e-36
-1.56202e-35
1.0856e-38
-1.15828e-37
5.06304e-41
5.30772e-41
7.76429e-43
9.37674e-42
9.79493e-45
2.60702e-43
1.16276e-46
5.11582e-45
1.49579e-48
8.22253e-47
1.67192e-50
1.13176e-48
1.60521e-52
1.3375e-50
1.29329e-54
1.34607e-52
8.41091e-57
1.13008e-54
4.1428e-59
7.63279e-57
1.37301e-61
3.89795e-59
2.27041e-64
1.33883e-61
2.29481e-64
0.000110062
0.000122423
0.000105655
0.000125998
6.64018e-05
0.00011384
6.85367e-06
5.99185e-05
1.39112e-06
7.9667e-06
1.61891e-07
1.57246e-06
6.09174e-09
1.711e-07
-1.45205e-10
5.52082e-09
-1.00014e-11
-1.8975e-10
-3.18867e-13
-1.37802e-11
-1.8653e-14
-6.16898e-13
-1.15015e-15
-3.57265e-14
7.16588e-17
-3.48889e-15
1.15373e-17
-5.05404e-16
5.26409e-19
-3.4897e-17
2.23416e-20
-1.30839e-18
1.22054e-21
-4.68063e-20
5.88182e-23
-2.19842e-21
2.67295e-24
-8.54767e-23
1.03408e-25
-2.9431e-24
3.59095e-27
-8.95893e-26
1.11004e-28
-2.4526e-27
3.01324e-30
-5.90752e-29
7.05157e-32
-1.21338e-30
1.37767e-33
-2.02077e-32
2.0914e-35
-2.44479e-34
1.84836e-37
-1.39838e-36
2.09433e-39
8.60633e-39
3.41021e-41
4.81945e-40
4.66122e-43
1.27414e-41
6.24718e-45
2.58074e-43
8.48318e-47
4.37846e-45
1.00881e-48
6.39978e-47
1.03034e-50
8.0488e-49
8.8209e-53
8.62224e-51
6.08698e-55
7.69862e-53
3.17559e-57
5.52211e-55
1.11228e-59
2.98913e-57
1.93822e-62
1.08556e-59
1.96104e-62
0.000108647
0.000120495
0.000107571
0.000127065
9.2738e-05
0.000128565
1.94697e-05
0.000106653
2.77012e-06
2.02086e-05
4.72981e-07
3.69401e-06
3.85937e-08
5.84468e-07
1.96097e-10
4.13929e-08
-9.88479e-11
-1.70427e-10
-6.86333e-12
-1.2607e-10
-3.95904e-13
-8.89633e-12
-2.22092e-14
-5.34232e-13
-7.85194e-16
-3.49622e-14
7.01005e-17
-2.53078e-15
6.70965e-18
-2.35987e-16
2.73173e-19
-1.21184e-17
1.47698e-20
-4.7322e-19
7.00142e-22
-2.22253e-20
2.96694e-23
-8.92714e-22
1.22593e-24
-3.19879e-23
4.45839e-26
-1.03607e-24
1.44189e-27
-2.95589e-26
4.09655e-29
-7.37833e-28
1.00104e-30
-1.55893e-29
2.0195e-32
-2.61569e-31
3.08335e-34
-2.93886e-33
3.9597e-36
-5.14945e-36
7.56324e-38
5.06076e-37
1.23327e-39
1.9952e-38
1.86133e-41
5.19e-40
2.75778e-43
1.09015e-41
3.98568e-45
1.951e-43
5.04153e-47
3.02285e-45
5.47467e-49
4.03825e-47
4.97842e-51
4.59664e-49
3.64456e-53
4.35864e-51
2.01419e-55
3.31656e-53
7.46017e-58
1.90168e-55
1.37136e-60
7.30175e-58
1.39088e-60
0.000106019
0.000117876
0.000107065
0.000126017
0.000104419
0.000131247
6.91777e-05
0.000119714
5.93651e-06
6.46499e-05
1.28803e-06
7.85517e-06
1.5325e-07
1.58995e-06
7.18266e-09
1.736e-07
-1.90731e-10
5.73642e-09
-3.88974e-11
-3.99471e-10
-3.0104e-12
-5.40327e-11
-1.9359e-13
-4.12042e-12
-1.01366e-14
-2.72528e-13
-3.89261e-17
-1.80142e-14
4.87413e-17
-1.13729e-15
3.19027e-18
-9.69566e-17
1.39816e-19
-4.1267e-18
6.6523e-21
-1.68462e-19
3.00484e-22
-6.97545e-21
1.22761e-23
-2.68228e-22
4.53155e-25
-9.1351e-24
1.50785e-26
-2.7524e-25
4.48476e-28
-7.18461e-27
1.17365e-29
-1.55877e-28
2.62232e-31
-2.55555e-30
4.92494e-33
-2.20307e-32
1.05091e-34
2.37134e-34
2.08529e-36
1.88209e-35
3.70432e-38
6.49873e-37
6.01949e-40
1.7005e-38
9.77043e-42
3.71389e-40
1.50035e-43
7.00263e-42
2.0148e-45
1.1477e-43
2.32204e-47
1.62488e-45
2.23924e-49
1.96095e-47
1.73669e-51
1.97076e-49
1.01567e-53
1.58814e-51
3.9754e-56
9.63342e-54
7.70741e-59
3.9074e-56
7.84594e-59
0.00010271
0.000114924
0.000104593
0.000124138
0.000104047
0.000131779
9.07731e-05
0.000132677
1.48686e-05
0.000107062
2.12722e-06
1.60007e-05
3.47849e-07
3.1864e-06
2.85341e-08
4.59945e-07
3.65894e-10
2.96353e-08
-9.59189e-11
-4.00403e-10
-1.18066e-11
-1.79305e-10
-9.38315e-13
-1.8639e-11
-6.01164e-14
-1.42895e-12
-2.72448e-15
-9.76174e-14
1.70147e-16
-6.22842e-15
2.70243e-17
-3.87769e-16
1.3311e-18
-2.55862e-17
6.12201e-20
-1.17291e-18
2.73513e-21
-4.9343e-20
1.1244e-22
-1.88982e-21
4.24826e-24
-6.51701e-23
1.47488e-25
-1.99778e-24
4.70007e-27
-5.31232e-26
1.37242e-28
-1.16202e-27
3.66197e-30
-1.7764e-29
9.03014e-32
-2.48154e-32
2.09471e-33
9.80102e-33
4.38717e-35
4.75028e-34
8.41317e-37
1.56006e-35
1.46345e-38
4.15884e-37
2.57701e-40
9.45897e-39
4.19352e-42
1.87614e-40
5.96315e-44
3.24519e-42
7.27594e-46
4.85676e-44
7.42385e-48
6.1988e-46
6.08748e-50
6.58741e-48
3.76083e-52
5.61016e-50
1.55337e-54
3.59358e-52
3.17317e-57
1.53757e-54
3.25139e-57
9.91594e-05
0.000111917
0.000101451
0.000121844
0.00010229
0.000130922
9.8029e-05
0.000136815
4.44674e-05
0.00011729
3.33927e-06
3.96898e-05
6.88925e-07
5.44581e-06
7.67356e-08
1.01337e-06
3.88573e-09
9.08974e-08
-7.44258e-11
2.07399e-09
-2.66572e-11
-3.75215e-10
-2.79386e-12
-5.56112e-11
-2.14891e-13
-5.11892e-12
-1.24284e-14
-3.856e-13
-6.68177e-16
-2.63709e-14
1.0274e-16
-1.48084e-15
1.04673e-17
-1.18911e-16
4.51346e-19
-5.97229e-18
2.15461e-20
-2.69684e-19
9.60546e-22
-1.10962e-20
3.92592e-23
-4.0764e-22
1.47091e-24
-1.31107e-23
5.0487e-26
-3.55314e-25
1.58496e-27
-7.32745e-27
4.56881e-29
-6.90618e-29
1.2234e-30
2.65472e-30
3.01173e-32
1.9826e-31
6.77294e-34
8.2262e-33
1.38862e-35
2.66793e-34
2.57487e-37
7.30071e-36
4.86156e-39
1.7303e-37
8.35643e-41
3.60319e-39
1.25451e-42
6.56121e-41
1.61583e-44
1.03518e-42
1.73961e-46
1.39349e-44
1.50433e-48
1.56174e-46
9.79492e-51
1.40221e-48
4.26065e-53
9.46385e-51
9.15484e-56
4.26321e-53
9.47924e-56
9.57249e-05
0.000109147
9.80384e-05
0.000119526
9.93983e-05
0.000129552
9.85749e-05
0.000137614
7.59312e-05
0.000133114
5.2674e-06
8.02153e-05
1.13362e-06
8.9369e-06
1.47896e-07
1.88242e-06
1.19253e-08
2.03422e-07
3.44527e-10
1.02672e-08
-2.4137e-11
-3.99982e-10
-4.78418e-12
-1.14163e-10
-4.65306e-13
-1.29784e-11
-3.1887e-14
-1.11433e-12
-1.08577e-15
-8.20875e-14
2.77552e-16
-5.4708e-15
4.28598e-17
-3.29337e-16
2.54143e-18
-2.17218e-17
1.25814e-19
-1.06639e-18
6.01186e-21
-4.63765e-20
2.63898e-22
-1.77714e-21
1.05995e-23
-5.80928e-23
3.89527e-25
-1.50282e-24
1.3111e-26
-2.29478e-26
4.07073e-28
3.57498e-28
1.16823e-29
4.70854e-29
3.06777e-31
2.46166e-30
7.36355e-33
9.64514e-32
1.60655e-34
3.15023e-33
3.16306e-36
8.88702e-35
6.30905e-38
2.19414e-36
1.14143e-39
4.78501e-38
1.80345e-41
9.14745e-40
2.44441e-43
1.51693e-41
2.76851e-45
2.14725e-43
2.51759e-47
2.53063e-45
1.72306e-49
2.38877e-47
7.87402e-52
1.69435e-49
1.7757e-54
8.01684e-52
1.87034e-54
9.26735e-05
0.000106764
9.46719e-05
0.00011752
9.60705e-05
0.000128139
9.62264e-05
0.000137441
8.81591e-05
0.000141121
1.37491e-05
0.000107957
1.70173e-06
1.45299e-05
2.33321e-07
3.12565e-06
2.37611e-08
3.72582e-07
1.43109e-09
2.61437e-08
2.87733e-11
1.49869e-10
-4.20021e-12
-1.76921e-10