/*--------------------------------*- C++ -*----------------------------------*\
| =========                 |                                                 |
| \\      /  F ield         | OpenFOAM: The Open Source CFD Toolbox           |
|  \\    /   O peration     | Version:  5.0                                   |
|   \\  /    A nd           | Web:      www.OpenFOAM.org                      |
|    \\/     M anipulation  |                                                 |
\*---------------------------------------------------------------------------*/
FoamFile
{
    version     2.0;
    format      ascii;
    class       volScalarField;
    location    "0.3";
    object      epsilon;
}
// * * * * * * * * * * * * * * * * * * * * * * * * * * * * * * * * * * * * * //

dimensions      [0 2 -3 0 0 0 0];

internalField   nonuniform List<scalar> 
1915
(
0.91255
0.817783
1.04686
1.3502
1.52356
2.31431
1.94143
3.51895
2.33483
4.93467
2.7022
6.30464
3.07537
7.73691
3.50138
9.42308
4.02688
11.5947
4.6344
14.5781
0.0541429
0.0818889
0.0854838
0.0860631
0.365645
0.367634
0.398675
0.423758
0.441731
0.449734
0.449565
0.442962
0.431558
0.416863
0.400314
0.383635
0.37027
0.378977
0.374984
0.086199
0.373964
0.370943
0.367497
0.0859018
0.0865891
0.368248
0.369683
0.373028
0.368539
0.0859369
0.0852765
0.0853716
0.366668
0.0850303
0.0856926
0.0857024
0.0829998
0.0730499
0.056288
0.0305755
0.138564
0.113713
0.149453
0.170427
0.18871
0.195594
0.198874
0.200693
0.201229
0.199473
0.195851
0.190886
0.185057
0.17879
0.172468
0.166497
0.161203
0.155671
0.151798
0.143746
0.144347
0.141905
0.138626
0.133173
0.129769
0.131878
0.1307
0.126386
0.125031
0.118807
0.116888
0.112026
0.10891
0.0993845
0.0897376
0.0793828
0.0702102
0.0612881
0.0487034
0.0228004
0.21395
0.148584
0.165013
0.17652
0.180935
0.180655
0.177793
0.174101
0.169712
0.164377
0.158406
0.152157
0.145928
0.139949
0.134393
0.129393
0.124996
0.120916
0.117609
0.114708
0.11238
0.110479
0.108844
0.107285
0.105767
0.104747
0.103721
0.102272
0.100828
0.0992264
0.097476
0.095041
0.0920414
0.0882551
0.0833251
0.0772669
0.0704908
0.0638609
0.0570189
0.0227307
0.31289
0.19529
0.200931
0.206229
0.204494
0.198263
0.190002
0.1813
0.172269
0.162984
0.153823
0.145119
0.137092
0.129868
0.123501
0.117996
0.113312
0.109323
0.106043
0.103371
0.1012
0.099473
0.098081
0.0969068
0.0958918
0.0950515
0.0942739
0.0934325
0.0925118
0.091532
0.0903647
0.0888624
0.0869438
0.0844727
0.0813137
0.0774289
0.0730008
0.0688593
0.0668258
0.0970319
0.44667
0.264573
0.260263
0.25882
0.249805
0.236103
0.220728
0.205436
0.190251
0.175583
0.161933
0.149622
0.138788
0.129435
0.121488
0.114828
0.109316
0.104797
0.101148
0.0982409
0.0959459
0.0941541
0.0927563
0.0916575
0.0907831
0.0900741
0.0894599
0.0888727
0.0882685
0.0876251
0.0868609
0.0858887
0.0846326
0.0830044
0.0809415
0.0784619
0.075799
0.073823
0.0757617
0.113907
0.645936
0.372457
0.352245
0.339503
0.319038
0.294334
0.268769
0.244161
0.220374
0.19825
0.178418
0.161156
0.146461
0.134156
0.123985
0.115668
0.108932
0.103528
0.099238
0.095871
0.093258
0.0912524
0.0897249
0.0885728
0.0877043
0.087041
0.0865152
0.086069
0.0856561
0.08524
0.0847614
0.0841606
0.0833823
0.0823762
0.081125
0.0797011
0.0784086
0.0782401
0.0832209
0.13207
0.970164
0.544942
0.48983
0.455481
0.416432
0.375559
0.33575
0.29812
0.262552
0.230372
0.202295
0.17849
0.158733
0.142586
0.129535
0.119075
0.110753
0.104179
0.0990289
0.0950321
0.0919634
0.0896347
0.0878878
0.0866014
0.0856641
0.084985
0.0844909
0.0841225
0.0838317
0.0835777
0.0833144
0.0829988
0.0825945
0.0820797
0.0814728
0.0808928
0.0807114
0.08207
0.0896725
0.148292
1.52648
0.821888
0.686745
0.612163
0.544778
0.481714
0.423474
0.368308
0.317408
0.27225
0.233578
0.201406
0.175221
0.154235
0.137588
0.124474
0.114198
0.106187
0.099978
0.0952016
0.0915616
0.0888184
0.0867798
0.0852975
0.0842376
0.0834956
0.0829898
0.0826555
0.0824414
0.0823059
0.0822102
0.0821228
0.0820231
0.0819109
0.0818341
0.0819512
0.0826968
0.0853618
0.0952682
0.162708
2.48718
1.2463
0.950207
0.808264
0.702497
0.612039
0.531132
0.454843
0.385334
0.324301
0.272572
0.23005
0.195923
0.168988
0.147955
0.131632
0.119015
0.109293
0.101829
0.0961302
0.091812
0.0885721
0.0861806
0.0844493
0.083222
0.0823785
0.0818259
0.081492
0.0813214
0.0812713
0.0813074
0.0814063
0.0815594
0.0817841
0.0821525
0.0828567
0.0843897
0.088184
0.100131
0.175548
4.15531
1.84803
1.26947
1.03315
0.883295
0.763445
0.656836
0.556873
0.466195
0.38674
0.319581
0.264674
0.220986
0.186892
0.160604
0.140469
0.125094
0.113372
0.104453
0.0976901
0.09259
0.0887784
0.0859761
0.0839478
0.0825133
0.0815345
0.0809051
0.0805441
0.0803903
0.080399
0.0805381
0.0807898
0.0811548
0.0816648
0.0824114
0.0836162
0.0858255
0.0906038
0.104368
0.187026
4.6149
9.99732
4.1671
7.39028
3.63792
5.69059
3.16386
4.50514
2.76768
3.68237
2.44485
3.09871
2.18629
2.67331
1.98341
2.35886
1.82972
2.12741
1.72102
1.96218
1.85281
1.79215
1.77422
1.79517
1.85576
1.95451
2.04977
2.09089
2.1358
2.19187
2.27019
2.38924
2.56408
2.80614
3.12441
3.51773
3.96935
4.45842
4.96809
5.41492
5.57349
5.28569
4.76934
15.9889
14.0059
19.1273
15.1362
10.4832
14.7834
46.1094
15.9802
7.61649
10.6017
24.9834
33.9892
5.87458
7.85295
14.7583
22.2325
4.69399
6.08089
9.69113
14.4873
3.85804
4.87318
6.95164
9.99379
3.25208
4.01414
5.32831
7.30984
2.80798
3.39079
4.28921
5.63243
2.4826
2.93627
3.58756
4.53763
2.24791
2.60701
3.09928
3.79813
2.08545
2.37353
2.75647
3.28734
1.98252
2.2153
2.51855
2.9315
1.92962
2.11751
2.35932
2.68511
1.91952
2.06924
2.26105
2.51887
1.94971
2.06343
2.21189
2.4138
2.02003
2.09751
2.20484
2.35792
2.11981
2.16642
2.23613
2.34388
2.18693
2.25156
2.29902
2.36604
2.23066
2.31658
2.38341
2.41862
2.29123
2.37533
2.45892
2.49593
2.36879
2.45426
2.54829
2.58964
2.48608
2.57225
2.66883
2.69445
2.66586
2.74691
2.81809
2.8166
2.92772
2.99975
3.02755
2.96979
3.29047
3.35266
3.31273
3.15742
3.76333
3.81627
3.66271
3.37224
4.34459
4.39252
4.05402
3.59404
5.04134
5.10713
4.51139
3.82643
5.87614
6.00601
5.10641
4.15175
6.75642
7.09627
5.91146
4.63173
7.33316
8.13953
6.91884
5.28155
7.33846
9.07012
8.1917
6.1231
6.8176
8.94824
9.49012
7.20059
4.00177
2.33021
1.60069
1.27983
1.08558
0.936554
0.800471
0.674509
0.56037
0.460137
0.375229
0.305832
0.25083
0.208225
0.175701
0.151063
0.132455
0.118411
0.107814
0.0998301
0.0938374
0.0893822
0.0861055
0.0837312
0.0820505
0.0809042
0.0801706
0.0797581
0.0795986
0.0796439
0.0798626
0.0802404
0.0807854
0.0815402
0.0826132
0.084252
0.0870517
0.0927004
0.108106
0.197425
6.5431
3.23342
2.08794
1.61006
1.33767
1.14241
0.96855
0.810878
0.669442
0.545515
0.440344
0.354214
0.285996
0.233377
0.193501
0.16357
0.141186
0.12445
0.111923
0.102545
0.095551
0.0903627
0.0865442
0.0837728
0.0818061
0.0804603
0.0795962
0.0791095
0.0789238
0.078986
0.0792639
0.0797451
0.0804426
0.0814083
0.0827644
0.0847816
0.0880997
0.094523
0.111418
0.206898
15.4531
6.30303
3.41812
2.29299
1.75247
1.4316
1.18283
0.97497
0.796821
0.644094
0.515425
0.410126
0.326719
0.262522
0.214119
0.178056
0.151317
0.131495
0.116773
0.105839
0.0977207
0.091704
0.0872751
0.0840561
0.081765
0.0801896
0.0791703
0.0785885
0.0783578
0.0784192
0.0787377
0.0793014
0.0801269
0.081273
0.0828735
0.0852197
0.0889921
0.0961032
0.114349
0.215532
23.1429
14.7536
7.17659
4.05383
2.6281
1.92668
1.49588
1.18929
0.951853
0.759616
0.602008
0.474306
0.373444
0.295963
0.237761
0.194655
0.16293
0.139595
0.122422
0.109739
0.100347
0.093399
0.0882879
0.0845695
0.0819155
0.0800811
0.0788833
0.0781869
0.077894
0.0779382
0.0782805
0.0789083
0.07984
0.0811396
0.0829508
0.0855825
0.0897531
0.0974754
0.116947
0.223427
18.0129
18.1255
14.1176
8.27535
4.69565
2.90052
2.01701
1.49914
1.15331
0.899712
0.703161
0.548054
0.426819
0.334088
0.264681
0.213533
0.176133
0.148883
0.128936
0.11426
0.103432
0.0954435
0.0895748
0.0853039
0.0822486
0.0801264
0.0787277
0.0778984
0.0775274
0.0775396
0.0778907
0.0785658
0.0795842
0.0810136
0.0830056
0.0858848
0.090404
0.0986694
0.119255
0.230674
13.1172
15.2267
15.8154
13.6799
9.0529
4.92377
2.96234
1.99049
1.43586
1.07837
0.824516
0.633677
0.487882
0.37744
0.295202
0.234901
0.191214
0.159492
0.13636
0.119422
0.10698
0.0978336
0.0911281
0.0862505
0.0827557
0.0803177
0.0786969
0.0777175
0.0772538
0.0772207
0.0775669
0.0782745
0.0793622
0.0809002
0.0830465
0.0861396
0.0909632
0.0997109
0.12131
0.237352
9.72677
11.8688
13.646
14.6156
13.2895
8.92183
4.71985
2.81934
1.86105
1.31981
0.975739
0.735094
0.558337
0.426839
0.329775
0.259379
0.208413
0.171511
0.144736
0.125239
0.110992
0.100563
0.0929387
0.0873995
0.0834273
0.0806467
0.0787837
0.0776388
0.0770693
0.0769785
0.0773077
0.0780344
0.0791759
0.0808036
0.0830808
0.0863578
0.0914469
0.100622
0.123145
0.243532
7.44345
9.29985
11.1475
13.0558
14.1954
12.4239
7.88108
4.24912
2.53452
1.66459
1.17272
0.858693
0.640944
0.483515
0.369796
0.287395
0.227894
0.185019
0.154095
0.131718
0.115462
0.103621
0.0949944
0.0887388
0.0842526
0.0811039
0.0789803
0.0776557
0.0769687
0.0768096
0.0771109
0.0778449
0.0790264
0.0807272
0.0831144
0.0865489
0.0918687
0.101423
0.124788
0.249274
5.89232
7.42544
9.09289
11.042
13.049
13.6195
11.0406
6.58253
3.62959
2.17858
1.44094
1.01457
0.740128
0.550942
0.416113
0.319264
0.2498
0.200073
0.164453
0.138855
0.120377
0.106991
0.0972787
0.0902535
0.0852184
0.0816782
0.0792776
0.0777609
0.0769463
0.0767094
0.0769735
0.0777045
0.078914
0.0806732
0.0831522
0.0867207
0.0922404
0.102131
0.126264
0.254635
4.8217
6.0644
7.499
9.21852
11.2602
12.9794
12.6896
9.27366
5.27048
2.96257
1.82033
1.22074
0.864572
0.631038
0.469437
0.355267
0.27423
0.216699
0.175803
0.146629
0.125713
0.110649
0.0997698
0.0919245
0.0863089
0.0823566
0.0796649
0.0779459
0.0769951
0.0766729
0.0768918
0.0776111
0.0788381
0.0806429
0.0831974
0.0868792
0.0925714
0.102759
0.127595
0.25966
4.07232
5.07387
6.28398
7.76535
9.60311
11.629
12.7788
11.1353
7.15818
4.03243
2.34931
1.49366
1.01903
0.725684
0.530439
0.395612
0.301228
0.234878
0.188107
0.154999
0.131431
0.114561
0.102439
0.0937289
0.0875053
0.0831239
0.0801301
0.0782008
0.0771073
0.0766937
0.0768612
0.0775615
0.0787972
0.0806364
0.0832524
0.0870295
0.0928699
0.10332
0.1288
0.264388
3.54271
4.35046
5.36319
6.63107
8.23225
10.19
11.9912
11.9066
8.90906
5.28877
3.02356
1.83958
1.20729
0.836419
0.599602
0.440384
0.330747
0.254532
0.201288
0.163899
0.137477
0.118684
0.105253
0.0956386
0.0887855
0.0839627
0.0806597
0.0785143
0.0772738
0.0767647
0.0768762
0.0775517
0.0787888
0.080653
0.0833184
0.0871748
0.0931422
0.103823
0.129896
0.26885
3.16694
3.82092
4.66645
5.75
7.14156
8.91421
10.8764
11.8088
10.0304
6.51989
3.79404
2.25249
1.42974
0.963679
0.676969
0.489445
0.362612
0.275507
0.215222
0.173232
0.143776
0.122962
0.108167
0.0976209
0.0901242
0.0848533
0.0812371
0.0788738
0.0774846
0.076878
0.0769305
0.077577
0.0788096
0.0806912
0.0833956
0.0873176
0.0933932
0.104279
0.130895
0.273072
2.90124
3.43294
4.13962
5.06721
6.28039
7.85621
9.76514
11.2569
10.5459
7.56376
4.57763
2.70864
1.68061
1.10582
0.761799
0.542314
0.39648
0.297552
0.229729
0.182869
0.150236
0.127326
0.111131
0.0996382
0.091493
0.0857744
0.081845
0.0792653
0.0777287
0.0770247
0.0770171
0.077632
0.0788559
0.0807484
0.0834831
0.0874589
0.0936264
0.104692
0.131808
0.277075
2.71656
3.1494
3.74155
4.5385
5.6015
7.00328
8.78218
10.5071
10.5879
8.25108
5.27472
3.16842
1.94679
1.25836
0.852253
0.598053
0.431787
0.320305
0.244566
0.192644
0.156741
0.131695
0.114088
0.101648
0.0928607
0.0866992
0.0824641
0.079674
0.0779942
0.0771953
0.0771284
0.0777106
0.0789228
0.0808214
0.0835794
0.0875989
0.093844
0.105067
0.132644
0.280872
2.59415
2.94471
3.44159
4.12961
5.06706
6.32154
7.95098
9.72631
10.347
8.6116
5.82332
3.58883
2.20956
1.41391
0.945249
0.655186
0.467726
0.343277
0.259421
0.202353
0.163154
0.135976
0.116972
0.103605
0.0941914
0.0876019
0.0830743
0.0800841
0.0782687
0.07738
0.0772563
0.0778063
0.0790054
0.0809065
0.0836819
0.0877368
0.0940473
0.10541
0.13341
0.284475
2.52188
2.80167
3.21762
3.81444
4.64729
5.77857
7.26499
8.99554
9.95331
8.71944
6.19179
3.93427
2.44852
1.56317
1.03663
0.711724
0.503242
0.365859
0.273921
0.211756
0.169319
0.140064
0.119712
0.105456
0.0954455
0.0884543
0.0836545
0.0804796
0.0785395
0.0775683
0.0773923
0.0779121
0.0790978
0.0809992
0.0837877
0.087871
0.0942363
0.105721
0.134111
0.287887
2.49087
2.70824
3.05387
3.57337
4.31899
5.34764
6.70965
8.35838
9.49324
8.63771
6.37556
4.17974
2.64533
1.69644
1.1217
0.765313
0.537075
0.387329
0.287632
0.220583
0.175062
0.143846
0.122229
0.107142
0.0965838
0.0892282
0.0841838
0.0808442
0.0787937
0.0777498
0.0775278
0.0780209
0.0791942
0.0810948
0.0838931
0.0879992
0.0944105
0.106002
0.13475
0.291111
2.49381
2.65477
2.93853
3.39153
4.064
5.00688
6.26256
7.81723
9.02166
8.41907
6.3981
4.31745
2.78855
1.80576
1.1959
0.81348
0.567851
0.406895
0.300077
0.228541
0.180201
0.147195
0.124429
0.108605
0.0975675
0.0898959
0.0846416
0.0811621
0.0790188
0.0779144
0.0776542
0.0781252
0.0792883
0.0811881
0.0839942
0.0881187
0.0945684
0.106254
0.13533
0.294143
2.52519
2.63299
2.86174
3.25717
3.86779
4.738
5.90023
7.35365
8.54942
8.09339
6.2893
4.35421
2.87515
1.88615
1.25548
0.853872
0.594177
0.423731
0.310767
0.235332
0.184521
0.149968
0.126233
0.109793
0.0983599
0.0904312
0.0850085
0.0814184
0.0792029
0.078052
0.0777631
0.078218
0.0793741
0.0812739
0.0840866
0.0882263
0.0947081
0.106475
0.135851
0.296981
2.57659
2.63529
2.81459
3.16013
3.71813
4.5258
5.60404
6.95096
8.07907
7.69656
6.08833
4.31364
2.90813
1.93518
1.29753
0.884416
0.614757
0.437049
0.319178
0.240583
0.187813
0.15205
0.127566
0.110658
0.0989282
0.0908107
0.0852671
0.0815996
0.0793349
0.0781535
0.0778468
0.0782925
0.0794455
0.0813471
0.0841661
0.0883187
0.0948274
0.106665
0.136313
0.299617
2.64423
2.6563
2.78935
3.09114
3.60415
4.35735
5.35985
6.60177
7.62152
7.26337
5.82847
4.21255
2.89176
1.95114
1.31992
0.903448
0.628348
0.445952
0.324766
0.244026
0.189923
0.153347
0.128368
0.111159
0.0992448
0.0910146
0.0854025
0.0816939
0.0794053
0.0782108
0.0778979
0.0783421
0.0794968
0.0814026
0.0842285
0.0883923
0.0949239
0.106823
0.136717
0.302043
2.73252
2.69191
2.77901
3.04166
3.51575
4.22044
5.15376
6.29619
7.18117
6.81427
5.5257
4.05952
2.83118
1.93547
1.32172
0.909671
0.634051
0.449966
0.327273
0.245493
0.190746
0.153791
0.128596
0.111266
0.099289
0.0910279
0.0854032
0.0816921
0.0794061
0.0782169
0.0779104
0.0783612
0.0795228
0.0814358
0.0842696
0.0884441
0.0949951
0.106948
0.137062
0.304249
2.82896
2.73236
2.77595
3.00371
3.44333
4.10278
4.97039
6.01654
6.74588
6.35155
5.18664
3.86159
2.73246
1.89256
1.30538
0.904088
0.632122
0.44906
0.326609
0.244906
0.190223
0.153342
0.128222
0.110963
0.0990482
0.0908409
0.0852615
0.0815875
0.0793316
0.0781663
0.0778789
0.0783451
0.0795193
0.0814428
0.0842861
0.0884709
0.095039
0.107037
0.137345
0.306225
2.92514
2.77109
2.77408
2.9706
3.37812
3.99236
4.79297
5.73574
6.29642
5.86988
4.81685
3.62933
2.60489
1.82833
1.27397
0.888049
0.623074
0.443399
0.322814
0.242267
0.18835
0.151994
0.127241
0.110244
0.0985181
0.09045
0.0849736
0.0813765
0.0791779
0.0780554
0.0777999
0.0782901
0.0794825
0.0814202
0.084275
0.0884705
0.0950535
0.10709
0.137567
0.307962
3.0252
2.80748
2.77058
2.93809
3.31317
3.87858
4.60654
5.42132
5.81368
5.37303
4.43101
3.37916
2.46044
1.74961
1.23086
0.863075
0.607574
0.433288
0.316036
0.237653
0.18517
0.149772
0.125668
0.109117
0.0977038
0.0898574
0.0845405
0.0810586
0.0789437
0.0778821
0.0776709
0.0781936
0.07941
0.0813656
0.084234
0.0884408
0.0950372
0.107106
0.137727
0.309452
3.12951
2.84467
2.76701
2.90589
3.24548
3.75465
4.40193
5.0663
5.30911
4.88152
4.05236
3.12979
2.3108
1.66259
1.179
0.830566
0.58633
0.419115
0.306505
0.231205
0.180767
0.146729
0.123537
0.107605
0.0966189
0.0890719
0.0839672
0.0806367
0.0786303
0.0776464
0.0774913
0.0780545
0.0793004
0.0812775
0.0841618
0.0883808
0.0949895
0.107085
0.137825
0.31069
3.2511
2.89421
2.7712
2.87886
3.17902
3.62121
4.17064
4.68587
4.81672
4.42375
3.70364
2.8962
2.16432
1.57141
1.12043
0.791619
0.560018
0.40133
0.294519
0.223115
0.175267
0.142945
0.120898
0.10574
0.0952852
0.0881079
0.083263
0.0801167
0.078241
0.0773504
0.0772619
0.077873
0.0791534
0.0811557
0.0840581
0.0882903
0.0949102
0.107026
0.13786
0.31167
3.42846
2.97759
2.79553
2.86383
3.12523
3.49216
3.91864
4.29771
4.36754
4.0244
3.40046
2.68657
2.02468
1.4777
1.05611
0.747012
0.529287
0.38043
0.28043
0.213622
0.168825
0.138521
0.117818
0.103566
0.0937319
0.0869848
0.0824413
0.0795074
0.0777819
0.0769979
0.0769853
0.0776507
0.0789704
0.0810009
0.0839235
0.0881698
0.0948002
0.106931
0.137835
0.312392
3.7009
3.1201
2.85539
2.86411
3.08692
3.39113
3.69112
3.95577
4.00103
3.70495
3.14977
2.50132
1.89081
1.38093
0.986248
0.697353
0.494805
0.356971
0.264642
0.202999
0.161621
0.133575
0.114374
0.101135
0.0919941
0.0857268
0.0815185
0.0788202
0.0772609
0.0765944
0.0766655
0.0773908
0.0787535
0.0808151
0.0837598
0.0880209
0.0946609
0.106801
0.137752
0.31286
4.09245
3.34445
2.96959
2.89077
3.03551
3.30333
3.5232
3.70574
3.73819
3.46243
2.9405
2.33099
1.75747
1.27919
0.910819
0.643325
0.457348
0.331585
0.247604
0.191546
0.153852
0.128236
0.110653
0.098506
0.0901117
0.0843614
0.0805139
0.0780687
0.0766876
0.0761473
0.076308
0.0770975
0.0785066
0.0806015
0.0835696
0.0878461
0.0944944
0.106639
0.137612
0.313083
4.61634
3.66559
3.15624
2.96938
3.00534
3.17423
3.36671
3.50175
3.52106
3.24966
2.74358
2.16106
1.61874
1.171
0.830243
0.585918
0.417855
0.304977
0.229797
0.179581
0.145725
0.12264
0.106745
0.09574
0.0881277
0.0829188
0.0794488
0.0772682
0.0760734
0.0756648
0.0759194
0.0767764
0.0782342
0.0803643
0.0833569
0.0876488
0.0943039
0.106447
0.13742
0.313072
5.27064
4.0858
3.42639
3.12061
3.04204
3.09474
3.20587
3.30404
3.30385
3.03424
2.54208
1.98421
1.47244
1.05673
0.745838
0.526494
0.377391
0.277884
0.211708
0.167418
0.137447
0.116926
0.102744
0.0929008
0.0860861
0.0814299
0.0783455
0.0764349
0.0754302
0.0751564
0.0755074
0.0764339
0.0779423
0.0801088
0.0831267
0.0874338
0.0940939
0.106229
0.137177
0.31282
)
;

boundaryField
{
    leftWall
    {
        Cmu             0.09;
        kappa           0.41;
        E               9.8;
        type            epsilonWallFunction;
        value           nonuniform 0();
    }
    rightWall
    {
        Cmu             0.09;
        kappa           0.41;
        E               9.8;
        type            epsilonWallFunction;
        value           nonuniform List<scalar> 
43
(
0.0305755
0.0228004
0.0227307
0.0970319
0.113907
0.13207
0.148292
0.162708
0.175548
0.187026
0.197425
0.206898
0.215532
0.223427
0.230674
0.237352
0.243532
0.249274
0.254635
0.25966
0.264388
0.26885
0.273072
0.277075
0.280872
0.284475
0.287887
0.291111
0.294143
0.296981
0.299617
0.302043
0.304249
0.306225
0.307962
0.309452
0.31069
0.31167
0.312392
0.31286
0.313083
0.313072
0.31282
)
;
    }
    lowerWall
    {
        Cmu             0.09;
        kappa           0.41;
        E               9.8;
        type            epsilonWallFunction;
        value           nonuniform List<scalar> 
66
(
0.91255
0.817783
0.817783
1.3502
2.31431
3.51895
4.93467
6.30464
7.73691
9.42308
11.5947
14.5781
15.9889
14.0059
19.1273
15.1362
0.0541429
0.138564
0.21395
0.31289
0.44667
0.645936
0.970164
1.52648
2.48718
4.15531
0.0541429
0.0818889
0.0854838
0.0860631
0.365645
0.367634
0.398675
0.423758
0.441731
0.449734
0.449565
0.442962
0.431558
0.416863
0.400314
0.383635
0.37027
0.378977
0.374984
0.086199
0.373964
0.370943
0.367497
0.0859018
0.0865891
0.368248
0.369683
0.373028
0.368539
0.0859369
0.0852765
0.0853716
0.366668
0.0850303
0.0856926
0.0857024
0.0829998
0.0730499
0.056288
0.0305755
)
;
    }
    atmosphere
    {
        type            inletOutlet;
        inletValue      nonuniform 0();
        value           nonuniform 0();
    }
    defaultFaces
    {
        type            empty;
    }
    procBoundary1to0
    {
        type            processor;
        value           nonuniform List<scalar> 
44
(
1.05367
1.40863
1.59406
1.6803
1.76941
1.88613
2.0375
2.22444
2.43792
2.64342
2.7326
2.6721
2.51552
2.32664
2.13836
1.9647
1.81272
1.68663
1.58924
1.5228
1.6546
1.6546
1.62813
1.63863
1.68589
1.77232
1.88723
1.95282
1.98606
2.02677
2.07883
2.15671
2.2722
2.43058
2.63304
2.8772
3.15131
3.42809
3.67576
3.86356
3.95842
3.88766
3.63277
3.27741
)
;
    }
    procBoundary1to3
    {
        type            processor;
        value           nonuniform List<scalar> 
45
(
4.0852
5.93012
7.96461
9.41822
8.12371
5.96157
4.58404
3.78162
3.35593
3.16262
3.09993
3.10842
3.14593
3.11078
2.8281
2.33995
1.80155
1.31979
0.938242
0.659604
0.466687
0.337099
0.25105
0.193808
0.155363
0.129217
0.111226
0.0987415
0.0900519
0.0840313
0.0799261
0.0772262
0.0755852
0.0747709
0.0746322
0.0750803
0.0760774
0.0776372
0.0798411
0.0828848
0.0872071
0.0938704
0.105992
0.136889
0.312302
)
;
    }
}


// ************************************************************************* //
