/*--------------------------------*- C++ -*----------------------------------*\
| =========                 |                                                 |
| \\      /  F ield         | OpenFOAM: The Open Source CFD Toolbox           |
|  \\    /   O peration     | Version:  5.0                                   |
|   \\  /    A nd           | Web:      www.OpenFOAM.org                      |
|    \\/     M anipulation  |                                                 |
\*---------------------------------------------------------------------------*/
FoamFile
{
    version     2.0;
    format      ascii;
    class       volScalarField;
    location    "0.3";
    object      k;
}
// * * * * * * * * * * * * * * * * * * * * * * * * * * * * * * * * * * * * * //

dimensions      [0 2 -2 0 0 0 0];

internalField   nonuniform List<scalar> 
1915
(
0.0310289
0.0287987
0.0761099
0.0484587
0.123802
0.0693376
0.162782
0.0916728
0.198396
0.114702
0.231271
0.135157
0.263132
0.154913
0.296368
0.176646
0.333453
0.202798
0.375482
0.23621
0.0105003
0.015921
0.0167029
0.0169016
0.0167247
0.0169143
0.0178591
0.0186009
0.0191328
0.0193718
0.0193742
0.0191897
0.0188628
0.0184339
0.0179423
0.0174365
0.0170194
0.017205
0.0170462
0.0171281
0.0169354
0.0168235
0.0168321
0.0169514
0.0170585
0.016784
0.0167961
0.0168684
0.0167244
0.0168395
0.0166971
0.0166932
0.0165629
0.0166502
0.0167382
0.0166928
0.0161183
0.0141639
0.0109055
0.00784946
0.010991
0.0222998
0.0273716
0.0307464
0.0334073
0.0356397
0.0373429
0.038555
0.0393056
0.0396467
0.0396391
0.0393424
0.0388151
0.0381142
0.0372955
0.0364137
0.0355187
0.0346054
0.0337834
0.0330612
0.0322728
0.0316312
0.0310146
0.0305603
0.0300461
0.0295065
0.0290285
0.0285211
0.0280319
0.0275247
0.0269115
0.026191
0.0253148
0.0244009
0.0232756
0.0219299
0.02017
0.0174292
0.0132831
0.00864825
0.0147158
0.0301771
0.0376962
0.0424467
0.0456667
0.0479106
0.049436
0.0504357
0.0509654
0.0510758
0.0508283
0.0502846
0.0495047
0.0485475
0.0474703
0.046328
0.0451688
0.0440182
0.0429309
0.0419237
0.0409805
0.0401341
0.0393639
0.0386637
0.0380035
0.0373749
0.0367571
0.0361143
0.0354293
0.0346856
0.0338423
0.0328641
0.0317142
0.0303619
0.0287275
0.0267292
0.0242168
0.0208445
0.0159486
0.00865156
0.0189788
0.0388492
0.0481829
0.0536899
0.0569632
0.0588661
0.0599233
0.0604495
0.0605176
0.0601951
0.0595512
0.0586481
0.0575432
0.0562909
0.0549434
0.0535503
0.052156
0.0507947
0.0495022
0.0482996
0.0471945
0.046192
0.0452809
0.0444514
0.0436835
0.0429555
0.0422396
0.0415048
0.0407198
0.0398632
0.0388965
0.0377792
0.0364655
0.0348998
0.0330094
0.0306938
0.0277931
0.0240056
0.0185683
0.00870104
0.0240648
0.0491154
0.0601387
0.0660533
0.0690135
0.070269
0.0705796
0.0703705
0.0697265
0.0687532
0.0675338
0.0661309
0.0645956
0.0629727
0.061304
0.0596292
0.0579845
0.0564011
0.0549063
0.0535192
0.0522495
0.0510979
0.050054
0.0491076
0.0482377
0.0474173
0.0466161
0.0458019
0.0449404
0.0440008
0.0429452
0.041729
0.0403014
0.0386006
0.0365481
0.0340353
0.0308929
0.0268048
0.0209505
0.00961998
0.0307517
0.0621749
0.0746651
0.080545
0.0827343
0.0829544
0.0821818
0.0809262
0.0792833
0.0774131
0.075415
0.0733501
0.0712586
0.0691704
0.0671115
0.0651063
0.0631783
0.0613492
0.0596378
0.0580579
0.0566163
0.0553115
0.0541321
0.0530672
0.0520936
0.0511813
0.0502976
0.0494081
0.0484764
0.0474648
0.0463346
0.0450386
0.0435224
0.0417209
0.0395505
0.0368958
0.0335754
0.0292443
0.0229862
0.0106269
0.0402591
0.0795672
0.0927058
0.0978029
0.0986151
0.0973455
0.0951302
0.0924805
0.0895336
0.0865068
0.0835135
0.0806107
0.0778242
0.075164
0.0726347
0.0702405
0.0679871
0.0658819
0.0639326
0.0621448
0.0605201
0.0590533
0.0577316
0.0565429
0.0554608
0.0544533
0.0534854
0.0525202
0.0515189
0.0504402
0.0492426
0.0478767
0.046286
0.0444019
0.0421371
0.0393689
0.0359028
0.0313633
0.0247425
0.0114826
0.0542933
0.103055
0.114782
0.117897
0.116642
0.113461
0.109533
0.105142
0.100622
0.0962011
0.0920039
0.0880862
0.0844604
0.0811146
0.0780282
0.07518
0.0725535
0.0701376
0.0679253
0.0659114
0.0640898
0.0624503
0.0609781
0.0596587
0.058462
0.0573541
0.0562982
0.0552549
0.0541829
0.0530384
0.0517768
0.0503467
0.0486893
0.0467334
0.0443874
0.0415221
0.0379297
0.0332058
0.0262614
0.012218
0.0748642
0.133638
0.140467
0.140016
0.136146
0.130836
0.125011
0.11876
0.112519
0.106539
0.100968
0.0958747
0.0912698
0.0871237
0.08339
0.0800194
0.076969
0.074205
0.0717023
0.0694422
0.0674086
0.0655844
0.0639541
0.0624958
0.0611775
0.0599634
0.0588147
0.0576898
0.056545
0.0553342
0.0540099
0.0525186
0.0507992
0.0487779
0.0463592
0.0434072
0.0397018
0.0348126
0.02758
0.0128554
0.104987
0.1714
0.167814
0.162391
0.155871
0.148636
0.140995
0.132982
0.125045
0.117458
0.110412
0.10402
0.0983117
0.0932561
0.0887856
0.0848228
0.0812957
0.0781445
0.0753229
0.0727955
0.0705341
0.0685142
0.0667168
0.0651114
0.0636642
0.0623377
0.061091
0.0598804
0.0586601
0.0573817
0.0559947
0.0544437
0.0526652
0.0505827
0.0480969
0.0450655
0.0412574
0.0362191
0.0287301
0.0134127
0.405033
0.286024
0.416581
0.339322
0.420736
0.375939
0.422245
0.395908
0.421798
0.406022
0.419703
0.410259
0.416601
0.41106
0.413325
0.410249
0.410782
0.409236
0.409873
0.409156
0.410911
0.415131
0.422094
0.431978
0.445229
0.461715
0.476175
0.482185
0.486892
0.490592
0.493924
0.498326
0.504628
0.513029
0.523441
0.535225
0.547516
0.560559
0.57559
0.589382
0.59044
0.57039
0.539101
0.210588
0.190865
0.235169
0.201529
0.262329
0.291969
0.693181
0.428046
0.306958
0.297425
0.486654
0.671524
0.344148
0.314123
0.386749
0.523059
0.370164
0.336509
0.351628
0.423415
0.386065
0.356663
0.346803
0.374782
0.394691
0.371385
0.353319
0.356191
0.398972
0.381043
0.362179
0.352785
0.401226
0.387335
0.370185
0.355924
0.403141
0.39201
0.376927
0.361365
0.405928
0.396473
0.383012
0.367489
0.410401
0.401715
0.389207
0.373964
0.417014
0.408356
0.396116
0.380919
0.425954
0.416716
0.40413
0.38857
0.437544
0.426982
0.413466
0.3971
0.452022
0.439372
0.424244
0.406614
0.468131
0.453476
0.436468
0.417097
0.478369
0.467197
0.449575
0.428341
0.483848
0.47635
0.462475
0.439924
0.488974
0.48238
0.471781
0.451259
0.493049
0.487791
0.479687
0.461183
0.497997
0.494017
0.48752
0.469004
0.505503
0.502269
0.49473
0.475435
0.516555
0.513944
0.504186
0.481753
0.531774
0.530185
0.516917
0.488355
0.550945
0.550979
0.531636
0.494864
0.573541
0.575845
0.546448
0.500042
0.600678
0.606551
0.563647
0.504724
0.634583
0.645804
0.588422
0.515653
0.670965
0.693874
0.625213
0.537123
0.693093
0.739306
0.67369
0.57012
0.689175
0.781242
0.737292
0.616104
0.661053
0.776235
0.803014
0.677892
0.167739
0.204386
0.192611
0.183243
0.174746
0.166196
0.156986
0.14749
0.138034
0.128903
0.120357
0.112584
0.105669
0.0995999
0.0943018
0.0896733
0.0856126
0.0820315
0.0788589
0.0760404
0.0735333
0.0713077
0.0693311
0.0675689
0.0659845
0.0645383
0.0631876
0.0618864
0.0605868
0.0592384
0.0577876
0.0561769
0.0543405
0.0521991
0.0496495
0.0465438
0.0426407
0.0374663
0.0297471
0.0139084
0.291941
0.244621
0.218259
0.204084
0.193251
0.183276
0.1728
0.162073
0.15131
0.140773
0.130771
0.121586
0.113386
0.106211
0.0999963
0.0946263
0.0899718
0.0859143
0.082356
0.0792201
0.0764521
0.0740051
0.0718364
0.0699065
0.0681757
0.066602
0.0651405
0.0637433
0.0623601
0.0609384
0.0594219
0.0577506
0.0558564
0.0536573
0.0510462
0.0478698
0.0438779
0.0385787
0.0306522
0.0143528
0.492558
0.333345
0.268281
0.235603
0.216191
0.202026
0.18916
0.176831
0.164739
0.152887
0.14151
0.130932
0.121413
0.113065
0.105861
0.0996813
0.0943768
0.0897992
0.0858217
0.0823488
0.0793022
0.0766179
0.0742445
0.0721367
0.070251
0.0685425
0.0669642
0.0654659
0.0639951
0.0624972
0.0609129
0.0591802
0.0572282
0.0549722
0.0523016
0.0490581
0.0449831
0.0395698
0.0314574
0.0147524
0.606173
0.512799
0.379935
0.301568
0.255591
0.228037
0.208509
0.192697
0.178579
0.165242
0.152499
0.140558
0.129712
0.12015
0.111897
0.104849
0.0988419
0.0937019
0.0892805
0.0854479
0.0821016
0.0791639
0.0765733
0.0742777
0.0722288
0.0703787
0.0686776
0.0670734
0.0655113
0.063934
0.0622801
0.0604847
0.0584747
0.0561624
0.0534338
0.050126
0.0459733
0.0404553
0.032176
0.0151137
0.518957
0.573316
0.537459
0.429737
0.3341
0.272251
0.23586
0.211807
0.193632
0.178065
0.163752
0.150419
0.138243
0.127443
0.118097
0.11013
0.103375
0.0976463
0.0927514
0.0885311
0.0848638
0.0816565
0.0788365
0.0763435
0.0741237
0.0721254
0.0702963
0.0685816
0.0669246
0.0652652
0.0635394
0.0616802
0.0596117
0.0572434
0.0544582
0.0510886
0.046863
0.0412489
0.0328193
0.015442
0.438665
0.513738
0.57081
0.561789
0.468779
0.352009
0.279887
0.238118
0.211533
0.191949
0.175431
0.160524
0.146977
0.134918
0.124447
0.115521
0.108001
0.101648
0.0962434
0.0916074
0.0875982
0.0841058
0.0810445
0.0783449
0.0759469
0.0737946
0.0718325
0.0700035
0.0682486
0.0665041
0.0647046
0.0627804
0.0606529
0.0582289
0.055388
0.0519591
0.0476646
0.041962
0.0333971
0.0157419
0.389671
0.447295
0.519214
0.581432
0.581857
0.481737
0.35234
0.277961
0.235132
0.208027
0.187933
0.170977
0.155919
0.142555
0.130929
0.121058
0.112732
0.10571
0.0997603
0.0946819
0.0903107
0.0865181
0.0832044
0.0802897
0.077707
0.0753955
0.0732961
0.0713493
0.0694935
0.0676618
0.065787
0.0637967
0.0616099
0.0591304
0.0562348
0.0527485
0.0483889
0.0426046
0.0339175
0.0160174
0.364209
0.401162
0.462055
0.540879
0.60499
0.584588
0.463346
0.339733
0.268857
0.228193
0.201986
0.182024
0.165134
0.150354
0.137612
0.126744
0.117561
0.109829
0.103302
0.0977555
0.0930034
0.0888969
0.0853205
0.0821833
0.0794101
0.0769348
0.0746947
0.0726272
0.0706679
0.0687474
0.066796
0.0647389
0.0624924
0.0599576
0.0570083
0.0534665
0.0490453
0.0431852
0.0343874
0.0162719
0.353491
0.372904
0.417927
0.489558
0.573773
0.619441
0.565023
0.429101
0.318748
0.255319
0.218783
0.194112
0.174785
0.158492
0.144502
0.132564
0.122476
0.113997
0.106862
0.100825
0.0956751
0.0912423
0.0873944
0.0840282
0.0810599
0.0784174
0.076034
0.0738439
0.0717791
0.0697682
0.0677394
0.0656149
0.0633086
0.0607189
0.0577169
0.0541214
0.0496415
0.0437111
0.0348129
0.016508
0.351132
0.357339
0.387156
0.444071
0.524519
0.601947
0.617905
0.524954
0.387233
0.293238
0.240125
0.208104
0.18532
0.167019
0.151594
0.138503
0.127462
0.1182
0.110432
0.103884
0.0983213
0.0935516
0.089425
0.0858249
0.0826581
0.079846
0.0773175
0.0750038
0.0728319
0.07073
0.0686232
0.0664313
0.0640654
0.0614213
0.0583675
0.05472
0.0501844
0.0441885
0.035199
0.0167283
0.353217
0.350186
0.367217
0.409874
0.478948
0.563442
0.623347
0.590472
0.462317
0.342071
0.267722
0.224848
0.196971
0.176006
0.15889
0.144543
0.132498
0.122421
0.113996
0.106922
0.100934
0.0958196
0.091409
0.0875716
0.0842042
0.0812214
0.0785472
0.0761086
0.0738299
0.0716369
0.0694523
0.0671933
0.0647682
0.0620706
0.0589662
0.0552684
0.0506797
0.0446226
0.0355499
0.0169346
0.357643
0.348385
0.355313
0.385519
0.442019
0.521674
0.60159
0.619873
0.530464
0.397485
0.301426
0.244735
0.209967
0.185531
0.166399
0.150665
0.137559
0.126639
0.117539
0.109924
0.103504
0.0980386
0.0933407
0.0892646
0.0856963
0.0825431
0.0797241
0.0771602
0.074775
0.0724917
0.0702301
0.0679047
0.0654214
0.0626712
0.0595175
0.0557713
0.051132
0.0450177
0.0358693
0.0171285
0.363403
0.349938
0.349106
0.368877
0.413936
0.484557
0.568958
0.620864
0.575566
0.451234
0.339131
0.267603
0.224407
0.195647
0.17412
0.156848
0.14262
0.130828
0.121038
0.112875
0.106017
0.100199
0.0952129
0.0908985
0.0871306
0.0838085
0.0808455
0.078158
0.0756681
0.0732959
0.0709587
0.0685683
0.0660282
0.0632269
0.0600254
0.0562325
0.0515452
0.0453775
0.03616
0.0173114
0.370064
0.3536
0.346845
0.358069
0.393207
0.454207
0.535786
0.606613
0.599174
0.497411
0.377342
0.292478
0.240118
0.206326
0.182034
0.163062
0.147648
0.134961
0.124471
0.115755
0.108458
0.102288
0.0970164
0.0924664
0.0885021
0.0850149
0.081909
0.0791007
0.0765086
0.0740501
0.0716394
0.069186
0.0665909
0.0637401
0.0604927
0.0566553
0.0519224
0.0457049
0.0364243
0.0174843
0.377475
0.358621
0.347269
0.351554
0.378269
0.430499
0.506345
0.585274
0.605985
0.52975
0.411949
0.317645
0.256576
0.217414
0.190076
0.169264
0.152607
0.139003
0.127809
0.118543
0.110811
0.104294
0.0987408
0.0939603
0.0898045
0.0861544
0.0829105
0.0799857
0.0772951
0.0747535
0.0722723
0.0697586
0.0671108
0.0642127
0.0609215
0.0570417
0.0522659
0.046002
0.0366641
0.0176478
0.385599
0.364562
0.349482
0.348125
0.367789
0.412413
0.481657
0.562358
0.602594
0.549496
0.440455
0.341203
0.272962
0.22861
0.198125
0.175388
0.15745
0.142921
0.131026
0.121216
0.113057
0.1062
0.100375
0.0953709
0.0910291
0.0872213
0.0838453
0.0808093
0.0780252
0.0754047
0.0728569
0.070286
0.0675884
0.0646457
0.0613131
0.0573934
0.0525774
0.0462705
0.0368809
0.0178025
0.394369
0.371134
0.352837
0.346838
0.360661
0.398844
0.461689
0.540696
0.593436
0.55942
0.461507
0.361541
0.288333
0.239501
0.206003
0.181345
0.162123
0.146674
0.134088
0.123748
0.115176
0.107993
0.101905
0.0966874
0.0921655
0.0882084
0.0847077
0.0815673
0.0786957
0.0760016
0.0733917
0.0707677
0.0680237
0.0650394
0.0616681
0.0577113
0.0528579
0.0465115
0.0370754
0.0179486
0.403555
0.378034
0.356811
0.346927
0.355961
0.388808
0.446059
0.521957
0.581523
0.561827
0.474742
0.377468
0.301798
0.249625
0.213495
0.187027
0.166559
0.150216
0.136963
0.126115
0.117148
0.109655
0.103318
0.0978945
0.0932041
0.0891078
0.0854916
0.0822549
0.0793029
0.0765415
0.0738747
0.0712022
0.0684158
0.0653934
0.0619868
0.0579957
0.0531082
0.0467259
0.0372485
0.0180864
0.412783
0.384845
0.360904
0.347737
0.352905
0.381435
0.433987
0.506321
0.56882
0.558622
0.481007
0.388561
0.312769
0.258585
0.22038
0.192313
0.170688
0.153499
0.139616
0.128288
0.118953
0.111167
0.104594
0.0989799
0.0941349
0.0899116
0.0861905
0.0828669
0.0798427
0.0770211
0.0743037
0.0715879
0.0687637
0.0657072
0.0622686
0.0582467
0.0533282
0.0469137
0.0374003
0.0182158
0.421671
0.391082
0.364592
0.348677
0.350815
0.375953
0.424572
0.493125
0.55565
0.550777
0.481392
0.394902
0.321046
0.266112
0.226465
0.197081
0.174432
0.156473
0.14201
0.130241
0.12056
0.112503
0.105716
0.0999316
0.0949481
0.0906118
0.0867979
0.083398
0.0803109
0.0774372
0.0746761
0.0719229
0.0690659
0.0659796
0.062513
0.0584638
0.053518
0.0470752
0.037531
0.0183367
0.429357
0.396204
0.367362
0.349217
0.349112
0.371712
0.417088
0.481762
0.542047
0.539564
0.47746
0.397514
0.326712
0.272066
0.231588
0.201215
0.177716
0.159085
0.1441
0.131927
0.121939
0.113645
0.106672
0.100738
0.0956343
0.0912005
0.0873074
0.083843
0.0807032
0.0777862
0.074989
0.072205
0.0693207
0.0662094
0.062719
0.0586465
0.0536771
0.0472101
0.0376406
0.0184488
0.435527
0.399914
0.36882
0.348919
0.347318
0.368187
0.411004
0.472029
0.528451
0.526334
0.470621
0.397136
0.329823
0.276264
0.235606
0.20461
0.180446
0.161249
0.145822
0.133313
0.123069
0.114577
0.107447
0.101388
0.0961846
0.0916703
0.0877127
0.0841968
0.0810157
0.0780651
0.07524
0.0724321
0.0695265
0.0663953
0.0628857
0.0587939
0.053805
0.0473182
0.0377288
0.0185519
0.440827
0.402122
0.368697
0.347467
0.345073
0.36493
0.405816
0.463627
0.515074
0.511931
0.46155
0.394111
0.330564
0.278626
0.238312
0.20708
0.182504
0.162905
0.147145
0.134377
0.123933
0.115284
0.10803
0.101873
0.0965908
0.0920146
0.0880087
0.0844551
0.0812447
0.0782709
0.0754268
0.0726024
0.0696817
0.0665361
0.063012
0.0589054
0.0539012
0.047399
0.0377956
0.0186455
0.44413
0.402195
0.366739
0.344699
0.342153
0.36156
0.400975
0.455911
0.501419
0.496435
0.450492
0.388682
0.329154
0.279335
0.23981
0.208659
0.183887
0.164035
0.14805
0.135101
0.124515
0.115754
0.108412
0.102184
0.096846
0.0922278
0.0881906
0.0846143
0.0813875
0.0784014
0.0755475
0.0727144
0.0697852
0.0666307
0.0630971
0.0589802
0.0539653
0.0474523
0.0378405
0.0187294
0.445057
0.400058
0.36302
0.340715
0.33852
0.357797
0.3959
0.447788
0.486629
0.479555
0.437605
0.381257
0.325991
0.278661
0.240243
0.209406
0.184608
0.164633
0.148524
0.135473
0.124804
0.115978
0.108582
0.102313
0.0969446
0.0923054
0.0882552
0.0846719
0.0814421
0.0784552
0.075601
0.0727672
0.0698363
0.0666786
0.0631406
0.0590181
0.0539968
0.0474778
0.0378636
0.0188032
0.444596
0.396363
0.358078
0.335968
0.334391
0.353529
0.39014
0.43784
0.469769
0.461417
0.423514
0.37259
0.321666
0.276962
0.239784
0.209389
0.184685
0.164699
0.14856
0.135483
0.124793
0.115947
0.108535
0.102255
0.0968826
0.0922445
0.0882003
0.0846265
0.0814077
0.0784317
0.075587
0.0727606
0.0698346
0.0666797
0.0631422
0.0590188
0.0539958
0.0474755
0.0378648
0.0188666
0.44343
0.392176
0.352942
0.33133
0.330342
0.348946
0.383599
0.425831
0.451356
0.443022
0.409388
0.363676
0.31684
0.274593
0.238594
0.208665
0.184135
0.164234
0.148157
0.135129
0.124475
0.115657
0.108268
0.102009
0.0966579
0.092044
0.0880258
0.0844784
0.0812849
0.0783316
0.0755062
0.0726952
0.0697808
0.0666342
0.0631024
0.0589827
0.0539625
0.0474458
0.0378443
0.0189194
0.443252
0.389261
0.349184
0.328092
0.327433
0.344716
0.376262
0.412683
0.433223
0.425971
0.39656
0.355441
0.312047
0.271807
0.236768
0.207266
0.182967
0.16324
0.147312
0.134406
0.123849
0.115105
0.107777
0.101572
0.0962707
0.0917049
0.0877332
0.0842295
0.0810757
0.0781569
0.0753603
0.0725725
0.0696762
0.0665433
0.063022
0.0589105
0.0538975
0.047389
0.0378025
0.0189613
0.447613
0.39004
0.348624
0.327634
0.327162
0.342303
0.368863
0.399494
0.417273
0.411899
0.386157
0.348525
0.30757
0.26869
0.234317
0.205185
0.181177
0.161718
0.146027
0.133317
0.122914
0.114293
0.107065
0.100946
0.0957237
0.0912305
0.0873261
0.0838836
0.0807837
0.077911
0.0751524
0.0723951
0.0695229
0.0664089
0.0629025
0.0588035
0.0538019
0.0473061
0.03774
0.0189925
0.459694
0.3969
0.35305
0.330955
0.330461
0.343746
0.364417
0.389591
0.406202
0.402547
0.378958
0.343125
0.303358
0.265137
0.23116
0.202382
0.178752
0.159666
0.144305
0.131865
0.121675
0.113224
0.106136
0.100137
0.0950223
0.0906269
0.0868107
0.0834466
0.0804143
0.0775985
0.0748864
0.0721665
0.069324
0.0662335
0.0627462
0.0586635
0.0536772
0.0471982
0.0376579
0.0190131
0.481324
0.411696
0.364083
0.339198
0.335959
0.348606
0.365475
0.386294
0.402047
0.398355
0.374586
0.338681
0.298962
0.26087
0.227162
0.198806
0.175681
0.15709
0.142155
0.130058
0.120139
0.111904
0.104996
0.0991531
0.0941755
0.0899028
0.0861955
0.0829262
0.0799746
0.0772256
0.0745679
0.0718913
0.0690832
0.0660204
0.0625558
0.0584928
0.0535252
0.0470669
0.0375571
0.0190234
0.513533
0.435519
0.38294
0.354001
0.345813
0.353427
0.369282
0.387201
0.401606
0.3965
0.371076
0.334017
0.293732
0.255567
0.222188
0.19442
0.171967
0.154003
0.13959
0.127908
0.118317
0.110347
0.103659
0.0980063
0.0931957
0.0890702
0.0854915
0.0823324
0.0794731
0.0767998
0.074203
0.0715749
0.0688054
0.0657736
0.0623348
0.0582942
0.0533482
0.0469139
0.0374389
0.019024
0.556433
0.468574
0.410224
0.376501
0.362741
0.363727
0.374417
0.389516
0.401615
0.394484
0.366914
0.328272
0.287206
0.249011
0.216165
0.189219
0.167629
0.150426
0.136631
0.125434
0.116226
0.108568
0.102142
0.0967131
0.0920986
0.0881439
0.0847121
0.0816768
0.0789199
0.0763295
0.073799
0.0712236
0.0684959
0.0654979
0.0620871
0.0580714
0.0531491
0.0467412
0.0373044
0.0190145
)
;

boundaryField
{
    leftWall
    {
        type            kqRWallFunction;
        value           nonuniform 0();
    }
    rightWall
    {
        type            kqRWallFunction;
        value           nonuniform List<scalar> 
43
(
0.00784946
0.00864825
0.00865156
0.00870104
0.00961998
0.0106269
0.0114826
0.012218
0.0128554
0.0134127
0.0139084
0.0143528
0.0147524
0.0151137
0.015442
0.0157419
0.0160174
0.0162719
0.016508
0.0167283
0.0169346
0.0171285
0.0173114
0.0174843
0.0176478
0.0178025
0.0179486
0.0180864
0.0182158
0.0183367
0.0184488
0.0185519
0.0186455
0.0187294
0.0188032
0.0188666
0.0189194
0.0189613
0.0189925
0.0190131
0.0190234
0.019024
0.0190145
)
;
    }
    lowerWall
    {
        type            kqRWallFunction;
        value           nonuniform List<scalar> 
66
(
0.0310289
0.0287987
0.0287987
0.0484587
0.0693376
0.0916728
0.114702
0.135157
0.154913
0.176646
0.202798
0.23621
0.210588
0.190865
0.235169
0.201529
0.0105003
0.010991
0.0147158
0.0189788
0.0240648
0.0307517
0.0402591
0.0542933
0.0748642
0.104987
0.0105003
0.015921
0.0167029
0.0169016
0.0167247
0.0169143
0.0178591
0.0186009
0.0191328
0.0193718
0.0193742
0.0191897
0.0188628
0.0184339
0.0179423
0.0174365
0.0170194
0.017205
0.0170462
0.0171281
0.0169354
0.0168235
0.0168321
0.0169514
0.0170585
0.016784
0.0167961
0.0168684
0.0167244
0.0168395
0.0166971
0.0166932
0.0165629
0.0166502
0.0167382
0.0166928
0.0161183
0.0141639
0.0109055
0.00784946
)
;
    }
    atmosphere
    {
        type            inletOutlet;
        inletValue      nonuniform 0();
        value           nonuniform 0();
    }
    defaultFaces
    {
        type            empty;
    }
    procBoundary1to0
    {
        type            processor;
        value           nonuniform List<scalar> 
44
(
0.0341636
0.099927
0.141737
0.175982
0.208498
0.240658
0.273049
0.305949
0.338975
0.370448
0.395303
0.410138
0.416923
0.419145
0.418621
0.416252
0.412873
0.409406
0.406822
0.406075
0.411395
0.411395
0.415904
0.423596
0.43482
0.450047
0.467788
0.4776
0.481784
0.485261
0.487856
0.490727
0.494569
0.499175
0.503869
0.507855
0.510146
0.509796
0.506798
0.502529
0.496671
0.485006
0.46537
0.441663
)
;
    }
    procBoundary1to3
    {
        type            processor;
        value           nonuniform List<scalar> 
45
(
0.49867
0.614218
0.72961
0.80468
0.734619
0.605002
0.509698
0.445933
0.407209
0.387592
0.381557
0.385146
0.395264
0.403501
0.392886
0.36209
0.321209
0.279169
0.241105
0.20909
0.183237
0.162705
0.146394
0.133305
0.122661
0.113892
0.106591
0.100465
0.0952953
0.0909042
0.0871416
0.0838725
0.0809725
0.0783259
0.0758241
0.0733639
0.0708441
0.0681606
0.0651984
0.0618176
0.0578282
0.0529314
0.0465514
0.0371547
0.0189939
)
;
    }
}


// ************************************************************************* //
