/*--------------------------------*- C++ -*----------------------------------*\
| =========                 |                                                 |
| \\      /  F ield         | OpenFOAM: The Open Source CFD Toolbox           |
|  \\    /   O peration     | Version:  5.0                                   |
|   \\  /    A nd           | Web:      www.OpenFOAM.org                      |
|    \\/     M anipulation  |                                                 |
\*---------------------------------------------------------------------------*/
FoamFile
{
    version     2.0;
    format      ascii;
    class       volScalarField;
    location    "0.3";
    object      nut;
}
// * * * * * * * * * * * * * * * * * * * * * * * * * * * * * * * * * * * * * //

dimensions      [0 2 -1 0 0 0 0];

internalField   nonuniform List<scalar> 
1915
(
9.49552e-05
9.12749e-05
0.000498007
0.000156527
0.000905391
0.000186964
0.00122838
0.000214937
0.00151724
0.000239954
0.00178143
0.000260771
0.00202625
0.000279158
0.00225771
0.000298027
0.0024851
0.000319236
0.00273796
0.000344459
0.000183276
0.000278585
0.000293727
0.000298731
6.88494e-05
7.00377e-05
7.20017e-05
7.34838e-05
7.45834e-05
7.50976e-05
7.51445e-05
7.48193e-05
7.42022e-05
7.33644e-05
7.23761e-05
7.13252e-05
7.04064e-05
7.02972e-05
6.97407e-05
0.000306307
6.90247e-05
6.86703e-05
6.93847e-05
0.000301059
0.000302456
6.88486e-05
6.86798e-05
6.86511e-05
6.83063e-05
0.000296976
0.000294236
0.000293771
6.73354e-05
0.000293433
0.000294251
0.000292624
0.000281711
0.000247166
0.00019016
0.000181363
7.8463e-05
0.000393579
0.000451169
0.000499219
0.000532266
0.000584459
0.000631073
0.000666609
0.000690972
0.000709208
0.000722044
0.000729778
0.00073272
0.000731265
0.000725849
0.000716745
0.000704343
0.000692345
0.000676678
0.000684359
0.000649393
0.000634565
0.000624495
0.000631164
0.000626105
0.000594162
0.000580253
0.00057926
0.000565626
0.000573913
0.000557637
0.000551098
0.000529571
0.000539184
0.000543339
0.000545243
0.000521502
0.000446088
0.00032605
0.000295227
9.10962e-05
0.000551603
0.00077503
0.000918622
0.00103734
0.00114355
0.00123713
0.00131498
0.00137747
0.00142834
0.00146785
0.00149562
0.00151146
0.00151567
0.00150907
0.00149286
0.001469
0.0014422
0.0014104
0.00137902
0.00134495
0.00131218
0.00128125
0.00125404
0.00122897
0.00120022
0.00117235
0.00114774
0.00112043
0.00109122
0.00105746
0.00102276
0.00098348
0.000940068
0.00089138
0.000832189
0.000748761
0.000612335
0.000401483
0.00029636
0.000103607
0.000695547
0.00103988
0.00125799
0.00142807
0.00157301
0.00170088
0.00181396
0.00191337
0.00200087
0.00207492
0.00213318
0.00217379
0.00219592
0.0021999
0.00218725
0.0021606
0.00212407
0.00207974
0.00203111
0.00198081
0.00193051
0.00188143
0.0018351
0.001791
0.00174712
0.0017033
0.00165936
0.00161308
0.00156248
0.00150683
0.00144554
0.00137647
0.00129769
0.00120602
0.00109507
0.000952334
0.000753193
0.000464347
7.02216e-05
0.000116686
0.000820603
0.00125065
0.00151717
0.00171597
0.00188221
0.00203116
0.00216944
0.00229991
0.00242295
0.00253484
0.00263061
0.0027058
0.00275736
0.00278411
0.00278684
0.0027681
0.00273193
0.00268243
0.00262404
0.00256082
0.00249579
0.00243095
0.00236794
0.00230681
0.00224655
0.00218618
0.00212443
0.00205925
0.00198855
0.00191094
0.00182466
0.00172721
0.00161558
0.00148525
0.00132875
0.00113317
0.000875945
0.000521413
7.31209e-05
0.000131763
0.000934107
0.00142441
0.0017198
0.00193095
0.00210417
0.00226159
0.00241404
0.00256712
0.00272056
0.00286892
0.00300467
0.0031203
0.00320976
0.00326938
0.00329818
0.00329777
0.00327192
0.00322558
0.0031643
0.00309343
0.00301737
0.00293927
0.00286151
0.00278478
0.00270857
0.00263175
0.00255266
0.00246913
0.00237871
0.00227958
0.00216922
0.00204454
0.00190172
0.00173537
0.00153721
0.00129396
0.000983777
0.000571405
7.69573e-05
0.000150358
0.00104559
0.0015791
0.00189006
0.00210177
0.00227089
0.00242585
0.00258197
0.00274789
0.00292358
0.00310292
0.00327654
0.00343404
0.00356604
0.0036656
0.00372904
0.00375614
0.00374969
0.00371471
0.00365748
0.00358448
0.00350151
0.00341304
0.00332257
0.00323159
0.00314013
0.00304721
0.0029511
0.00284949
0.00273971
0.00261941
0.00248553
0.00233448
0.00216178
0.00196137
0.0017244
0.00143736
0.0010787
0.000614429
8.00217e-05
0.000173797
0.00116296
0.0017266
0.00204353
0.00224766
0.00240519
0.00254978
0.00270137
0.00287084
0.00305939
0.00326154
0.00346726
0.00366405
0.00383934
0.00398258
0.00408665
0.00414858
0.0041694
0.00415338
0.00410695
0.00403745
0.00395192
0.00385631
0.00375538
0.00365161
0.00354575
0.00343721
0.0033244
0.00320496
0.00307605
0.00293486
0.00277793
0.00260119
0.00239969
0.00216684
0.00189341
0.00156572
0.00116254
0.000651524
8.2572e-05
0.000202807
0.00128967
0.00186885
0.00218294
0.00237469
0.00251721
0.00264813
0.00279075
0.00295702
0.00315
0.0033661
0.00359607
0.00382657
0.00404258
0.00423001
0.00437794
0.00447994
0.00453438
0.00454399
0.00451471
0.00445424
0.00437066
0.00427139
0.00416245
0.00404751
0.00392827
0.00380473
0.00367558
0.00353856
0.00339073
0.00322894
0.00304937
0.00284762
0.0026183
0.00235447
0.00204662
0.00168103
0.00123688
0.000683697
8.47267e-05
0.000238734
0.00143072
0.00199654
0.00229721
0.00247552
0.00260445
0.00272392
0.00285805
0.00301862
0.0032106
0.00343315
0.00367926
0.0039363
0.00418801
0.00441743
0.00460985
0.00475491
0.00484766
0.00488847
0.00488204
0.0048359
0.00475879
0.00465945
0.00454515
0.00442089
0.00428946
0.00415165
0.00400663
0.00385233
0.00368586
0.00350377
0.00330203
0.00307592
0.00281976
0.00252632
0.00218595
0.00178497
0.00130308
0.000711785
8.65715e-05
0.00319934
0.000736482
0.00374808
0.00140219
0.00437935
0.00223521
0.00507172
0.00313128
0.00578544
0.00402917
0.00648448
0.00488852
0.00714456
0.00568858
0.00775202
0.00642149
0.00830007
0.00708499
0.00878527
0.00767859
0.00820176
0.00865442
0.0090376
0.00935532
0.00961361
0.00981642
0.00995566
0.0100078
0.00998957
0.00988258
0.00967165
0.00935427
0.00893826
0.00844147
0.00789242
0.00732915
0.00679699
0.00634314
0.00600178
0.00577357
0.00562947
0.00553967
0.00548435
0.000249626
0.000234091
0.000260225
0.000241492
0.000590802
0.00051897
0.000937878
0.00103191
0.00111339
0.000750974
0.000853164
0.00119406
0.0018145
0.00113086
0.000912148
0.00110753
0.00262718
0.00167598
0.00114825
0.00111375
0.00347695
0.00234935
0.00155712
0.00126494
0.00431116
0.00309242
0.00210856
0.00156207
0.00510191
0.00385381
0.00275239
0.00198869
0.00583597
0.00459855
0.00343781
0.00251262
0.00650696
0.00530512
0.0041257
0.00309431
0.00711116
0.00596038
0.00478978
0.00369731
0.00764612
0.0065561
0.00541319
0.0042935
0.00811094
0.00708753
0.0059855
0.00486347
0.00850696
0.0075529
0.00650091
0.00539479
0.00883727
0.00795192
0.00695599
0.00587953
0.00910341
0.00828328
0.00734677
0.00631072
0.00930422
0.00854295
0.00766743
0.00668009
0.00941747
0.00872487
0.00791234
0.0069791
0.00944555
0.00881551
0.00807643
0.00720162
0.00939176
0.00881654
0.00814662
0.0073428
0.00923628
0.00872548
0.0081266
0.00739179
0.008978
0.00853913
0.00801507
0.00734725
0.00862688
0.00826553
0.0078167
0.0072227
0.00820251
0.00792482
0.00755669
0.00703341
0.00773463
0.00754583
0.00725936
0.006798
0.00725917
0.00715935
0.00694495
0.00653576
0.00681433
0.00679423
0.0066291
0.0062614
0.0064414
0.00648338
0.00633792
0.00599179
0.00616776
0.00624969
0.00610246
0.00576403
0.00599689
0.00610624
0.00595119
0.00560592
0.00589568
0.00604354
0.00590377
0.00553877
0.00582501
0.00605621
0.00597238
0.00557929
0.00576877
0.00606026
0.00611528
0.00574374
0.000632787
0.00161344
0.00208593
0.00236125
0.00253158
0.0026543
0.00277088
0.00290255
0.00306011
0.00324998
0.00347447
0.00373005
0.00400644
0.00428773
0.00455521
0.00479083
0.00498023
0.0051146
0.00519122
0.00521279
0.00518602
0.00511993
0.00502422
0.00490737
0.00477578
0.00463347
0.00448219
0.00432174
0.00415044
0.00396549
0.0037633
0.00353968
0.0032897
0.00300744
0.00268549
0.00231412
0.00187981
0.00136283
0.000736689
8.81845e-05
0.00117233
0.00166558
0.00205337
0.0023282
0.00251268
0.00264624
0.00277464
0.00291547
0.00307797
0.00326943
0.00349524
0.00375616
0.00404579
0.00435033
0.0046508
0.00492677
0.00516015
0.00533802
0.005454
0.00550808
0.00550536
0.00545478
0.00536654
0.00525018
0.00511347
0.00496175
0.0047979
0.00462256
0.00443454
0.0042313
0.00400922
0.00376401
0.00349062
0.00318296
0.00283352
0.00243257
0.0019668
0.0014171
0.000758947
8.96104e-05
0.001413
0.00158665
0.00189511
0.00217873
0.00240032
0.00256589
0.00272258
0.00288647
0.0030653
0.00326613
0.00349664
0.00376197
0.00406066
0.00438263
0.00471038
0.00502243
0.00529767
0.00551922
0.00567668
0.00576646
0.00579197
0.00576123
0.00568435
0.00557168
0.00543226
0.00527285
0.00509759
0.0049081
0.00470386
0.00448271
0.0042411
0.00397479
0.00367862
0.00334644
0.00297069
0.00254169
0.0020464
0.00146633
0.000778855
9.08776e-05
0.00142895
0.00160412
0.00181027
0.00201905
0.00223713
0.00242909
0.00261574
0.00280998
0.00301531
0.0032351
0.00347678
0.0037488
0.00405486
0.0043899
0.00473954
0.00508279
0.00539664
0.0056607
0.00585998
0.00598805
0.00604565
0.00603885
0.00597717
0.00587145
0.00573189
0.00556667
0.00538131
0.00517856
0.00495873
0.00472016
0.00445951
0.00417264
0.00385441
0.00349865
0.00309781
0.0026423
0.00211936
0.00151112
0.000796741
9.20124e-05
0.00134562
0.00163208
0.00184151
0.00200845
0.00213944
0.00229988
0.00248223
0.00269328
0.00292583
0.00317171
0.00343211
0.00371554
0.00402981
0.00437538
0.00474241
0.00511199
0.00546048
0.0057638
0.00600494
0.0061736
0.00626661
0.00628749
0.0062447
0.00614918
0.00601212
0.00584311
0.0056491
0.00543413
0.00519947
0.00494404
0.00466491
0.00435813
0.00401864
0.00364029
0.00321559
0.00273511
0.00218633
0.00155198
0.000812877
9.30357e-05
0.00132028
0.00155999
0.00185415
0.00207637
0.0021847
0.00226492
0.00237997
0.0025637
0.00280469
0.003075
0.00335937
0.00365978
0.00398497
0.00434042
0.00472163
0.00511307
0.00549011
0.00583044
0.00611358
0.0063244
0.0064555
0.00650738
0.00648689
0.00640474
0.00627285
0.00610212
0.00590102
0.00567496
0.00542638
0.00515473
0.00485776
0.00453179
0.00417189
0.00377199
0.0033247
0.00282074
0.00224786
0.00158933
0.000827489
9.39649e-05
0.00140498
0.00151713
0.001778
0.00208174
0.0022928
0.00234104
0.00236722
0.0024664
0.00267368
0.002951
0.00325773
0.00357912
0.00391871
0.0042849
0.0046784
0.00508506
0.00548797
0.00586381
0.00618845
0.00644225
0.00661347
0.00669915
0.00670407
0.00663825
0.00651411
0.00634375
0.00613717
0.00590124
0.00563961
0.00535254
0.00503848
0.0046941
0.0043147
0.00389433
0.00342572
0.00289975
0.00230444
0.00162353
0.000840762
9.48143e-05
0.00160387
0.00155742
0.00172366
0.00201669
0.00232054
0.00247562
0.0024517
0.00244467
0.00256679
0.0028154
0.00313105
0.00347265
0.00382908
0.00420786
0.00460888
0.00503056
0.00545801
0.00586756
0.0062326
0.00652952
0.00674219
0.00686388
0.00689686
0.00685008
0.00673614
0.0065682
0.00635775
0.0061132
0.00583947
0.00553783
0.00520748
0.00484555
0.00444758
0.00400784
0.00351919
0.00297266
0.00235651
0.00165491
0.000852845
9.55959e-05
0.0019086
0.00168544
0.00172879
0.00195345
0.00227062
0.0025356
0.00260245
0.0025175
0.00251929
0.00269298
0.0029897
0.00334243
0.00371487
0.00410346
0.00451629
0.00495387
0.0054045
0.00584571
0.00624954
0.00658902
0.00684377
0.00700308
0.0070663
0.00704091
0.00693939
0.00677581
0.00656308
0.00631118
0.00602629
0.00571096
0.00536517
0.00498656
0.00457103
0.00411302
0.00360557
0.00303989
0.00240443
0.00168372
0.000863862
9.63193e-05
0.00230134
0.00189502
0.00179892
0.00192524
0.00219898
0.0025125
0.00270793
0.00267445
0.00256058
0.00261225
0.0028508
0.00319287
0.00357508
0.00397851
0.00440585
0.00485968
0.00533199
0.00580258
0.00624314
0.00662402
0.0069208
0.00711868
0.00721376
0.0072117
0.00712455
0.00696707
0.00675353
0.00649554
0.00620045
0.00587231
0.00551194
0.00511758
0.00468547
0.00421032
0.00368532
0.00310184
0.00244852
0.00171018
0.000873914
9.69926e-05
0.0027573
0.0021752
0.00193131
0.00194708
0.00214984
0.00245697
0.00273661
0.00281798
0.00268732
0.00261161
0.0027458
0.00304628
0.0034266
0.00384193
0.00428354
0.00475298
0.00524521
0.0057427
0.00621757
0.00663812
0.00697624
0.00721297
0.00734096
0.0073637
0.0072925
0.00714262
0.00692961
0.00666652
0.00636226
0.00602223
0.00564818
0.00523899
0.00479133
0.00430014
0.00375882
0.00315886
0.00248906
0.00173448
0.000883085
9.76224e-05
0.00324943
0.00251088
0.00211856
0.00201721
0.00213602
0.00240361
0.00271632
0.00290444
0.00284264
0.00268862
0.00270449
0.00293033
0.0032865
0.00370384
0.00415603
0.00463911
0.00514904
0.00567071
0.00617715
0.00663519
0.00701335
0.00728859
0.00744993
0.00749839
0.00744432
0.00730327
0.00709195
0.00682465
0.00651213
0.00616109
0.00577427
0.00535119
0.00488898
0.00438286
0.0038264
0.00321124
0.00252628
0.00175677
0.000891442
9.8214e-05
0.00375301
0.00288441
0.00235056
0.00212979
0.00215931
0.00237055
0.00267866
0.00293785
0.00297243
0.00281065
0.0027282
0.00286128
0.00316998
0.00357482
0.00403063
0.00452371
0.00504847
0.00559132
0.00612633
0.00661927
0.00703564
0.00734845
0.00754294
0.00761751
0.00758128
0.0074499
0.00724103
0.00697039
0.00665047
0.00628927
0.00589054
0.00545453
0.00497878
0.00445882
0.00388839
0.00325924
0.00256038
0.00177717
0.000899036
9.87714e-05
0.00424828
0.00327794
0.00261549
0.00227723
0.00221563
0.0023634
0.00264574
0.00294203
0.00306382
0.00294398
0.00279945
0.00284235
0.00308762
0.00346469
0.00391478
0.00441262
0.00494854
0.00550925
0.00606959
0.00659451
0.0070468
0.00739563
0.0076225
0.00772298
0.0077048
0.00758358
0.00737758
0.00710429
0.0067777
0.00640713
0.00599735
0.00554931
0.00506102
0.00452829
0.00394503
0.00330308
0.00259152
0.00179579
0.000905909
9.92979e-05
0.00472062
0.00367525
0.00290084
0.00245084
0.002299
0.00238169
0.00262745
0.00293411
0.00312145
0.00306107
0.00289554
0.00286605
0.00304337
0.00338075
0.00381529
0.00431152
0.00485423
0.00542913
0.00601135
0.00656508
0.00705059
0.0074334
0.00769124
0.00781684
0.00781639
0.00770516
0.00750234
0.00722687
0.00689421
0.00651499
0.00609498
0.00563583
0.00513599
0.00459154
0.00399654
0.00334294
0.00261983
0.00181271
0.000912093
9.9796e-05
0.00515846
0.00406203
0.003194
0.00264123
0.00240262
0.0024215
0.00262602
0.0029263
0.00315847
0.00315565
0.00299829
0.00291955
0.00303488
0.00332669
0.00373743
0.00422548
0.0047702
0.00535539
0.00595592
0.00653509
0.0070508
0.00746505
0.00775191
0.00790123
0.00791757
0.00781582
0.00761611
0.00733869
0.00700042
0.00661319
0.00618372
0.00571434
0.00520392
0.00464878
0.00404313
0.00337897
0.00264542
0.00182797
0.000917607
0.000100267
0.00555039
0.00442472
0.00348222
0.00283834
0.00251907
0.00247758
0.00264062
0.00292497
0.00318436
0.00323021
0.00309587
0.00299015
0.00305582
0.00330257
0.00368437
0.00415857
0.0047006
0.00529217
0.00590741
0.00650856
0.00705119
0.00749391
0.00780727
0.0079783
0.00800984
0.00791668
0.00771967
0.00744027
0.0070967
0.006702
0.00626381
0.00578505
0.00526499
0.00470018
0.00408493
0.00341128
0.00266836
0.00184163
0.000922468
0.000100713
0.00588434
0.00474917
0.00375206
0.00303139
0.00264038
0.00254419
0.00266887
0.00293353
0.00320599
0.00328889
0.00318156
0.00306798
0.00309881
0.00330584
0.00365713
0.00411351
0.00464885
0.00524317
0.00586967
0.00648935
0.00705541
0.00752324
0.00786004
0.00805008
0.00809483
0.00800888
0.00781377
0.00753212
0.00718338
0.00678167
0.00633544
0.00584815
0.00531939
0.00474589
0.00412206
0.00343998
0.00268871
0.00185371
0.000926681
0.000101132
0.00614926
0.00502098
0.00398928
0.00320883
0.00275807
0.00261527
0.00270673
0.00295149
0.00322779
0.00333591
0.00325457
0.00314726
0.00315727
0.00333263
0.00365504
0.00409178
0.00461756
0.00521163
0.00584628
0.0064811
0.00706696
0.0075562
0.00791282
0.00811868
0.00817407
0.00809346
0.0078991
0.00761468
0.00726077
0.00685244
0.00639881
0.00590379
0.00536725
0.00478603
0.00415463
0.00346511
0.00270652
0.00186423
0.000930249
0.000101527
0.00633718
0.00522792
0.00418048
0.00335929
0.00286376
0.00268482
0.00274964
0.00297614
0.00325018
0.00337337
0.00331619
0.00322338
0.00322639
0.00337906
0.00367653
0.00409391
0.00460869
0.00520032
0.00584044
0.0064872
0.00708923
0.0075958
0.00796809
0.00818601
0.00824892
0.00817135
0.00797625
0.00768832
0.0073291
0.00691445
0.00645404
0.0059521
0.00540867
0.0048207
0.0041827
0.00348673
0.00272179
0.00187318
0.00093317
0.000101896
0.00643925
0.00536106
0.00431535
0.00347319
0.00295017
0.00274765
0.0027938
0.00300513
0.00327307
0.00340434
0.00336991
0.00329689
0.00330338
0.00344246
0.00372012
0.00412008
0.00462371
0.00521163
0.00585514
0.00651096
0.00712525
0.00764464
0.00802799
0.00825368
0.00832051
0.00824327
0.00804568
0.00775332
0.00738857
0.00696786
0.00650125
0.00599318
0.00544376
0.00484998
0.00420633
0.00350489
0.00273456
0.00188057
0.00093544
0.000102238
0.00645614
0.00541875
0.00438903
0.00354464
0.00301228
0.0028
0.0028365
0.00303752
0.00329769
0.00343264
0.00342003
0.00336958
0.00338564
0.00352049
0.00378503
0.00417055
0.00466377
0.00524746
0.00589274
0.00655472
0.0071773
0.00770478
0.00809419
0.00832293
0.00838969
0.00830976
0.00810769
0.00780987
0.00743929
0.00701277
0.00654055
0.00602712
0.00547259
0.00487392
0.00422559
0.00351959
0.00274481
0.00188639
0.000937055
0.000102553
0.00640054
0.00540627
0.00440241
0.00357239
0.00304822
0.00283991
0.00287592
0.00307257
0.00332497
0.00346136
0.0034697
0.00344354
0.00347364
0.00360994
0.00386719
0.00424261
0.00472783
0.00530799
0.00595419
0.00661996
0.00724701
0.0077777
0.00816786
0.00839457
0.00845693
0.00837109
0.00816242
0.00785804
0.00748132
0.00704925
0.00657201
0.00605401
0.00549526
0.00489262
0.0042405
0.00353089
0.00275257
0.00189064
0.00093801
0.00010284
0.00627532
0.00532817
0.00436058
0.00356012
0.00305988
0.00286765
0.0029113
0.00310926
0.00335432
0.00349211
0.00352152
0.003521
0.00356852
0.00371059
0.00396495
0.00433419
0.00481442
0.00539276
0.00603989
0.00670754
0.00733535
0.00786424
0.00824957
0.0084689
0.00852236
0.00842723
0.00820984
0.00789781
0.0075147
0.00707735
0.00659572
0.00607396
0.00551185
0.00490613
0.00425114
0.00353879
0.00275784
0.00189331
0.000938301
0.000103098
0.00609434
0.00519803
0.00427547
0.00351707
0.00305307
0.00288594
0.00294312
0.00314629
0.0033849
0.00352607
0.00357803
0.00360455
0.00367167
0.00382245
0.00407739
0.00444412
0.00492269
0.0055015
0.00615008
0.00681794
0.00744277
0.00796463
0.00833931
0.00854572
0.00858567
0.0084779
0.00824971
0.00792907
0.00753939
0.00709713
0.00661178
0.00608706
0.00552247
0.00491455
0.00425756
0.00354335
0.00276065
0.00189441
0.00093793
0.000103326
0.00588057
0.00503631
0.00416512
0.00345759
0.00303744
0.00290015
0.00297377
0.0031825
0.00341633
0.00356623
0.00364315
0.00369741
0.00378479
0.00394585
0.00420413
0.00457194
0.00505249
0.00563438
0.00628509
0.0069514
0.00756922
0.00807849
0.00843645
0.00862429
0.00864615
0.00852255
0.00828168
0.00795163
0.00755537
0.00710866
0.00662031
0.00609346
0.00552725
0.004918
0.00425985
0.00354463
0.00276102
0.00189395
0.000936901
0.000103523
0.00565481
0.00486601
0.00405172
0.00340005
0.00302616
0.00291871
0.00300853
0.00322127
0.0034535
0.00361858
0.00372224
0.00380327
0.00390984
0.00408164
0.00434556
0.0047181
0.00520445
0.00579209
0.00644535
0.00710788
0.00771412
0.00820482
0.00853974
0.00870335
0.00870273
0.00856037
0.00830526
0.00796528
0.00756262
0.00711205
0.00662147
0.00609335
0.00552637
0.00491662
0.00425813
0.0035427
0.00275899
0.00189195
0.000935225
0.000103688
0.00543892
0.00471189
0.00395988
0.00336522
0.00303524
0.00295332
0.00305507
0.00327104
0.00350683
0.00369157
0.00382147
0.003926
0.00404911
0.00423131
0.00450304
0.00488407
0.00538006
0.00597581
0.00663139
0.00728705
0.00787634
0.0083419
0.00864727
0.00878112
0.00875398
0.00859039
0.00831989
0.00796981
0.00756117
0.00710746
0.0066155
0.00608695
0.00552004
0.00491058
0.00425252
0.00353765
0.00275465
0.00188846
0.000932919
0.000103821
0.00525954
0.00459829
0.00391286
0.00337344
0.00308239
0.00301974
0.00312492
0.00334215
0.00358795
0.00379422
0.00394668
0.00406923
0.00420507
0.00439702
0.00467887
0.00507229
0.00558157
0.00618707
0.0068436
0.00748804
0.00805397
0.00848727
0.00875649
0.00885535
0.0087982
0.00861152
0.00832503
0.00796507
0.00755112
0.00709514
0.00660268
0.00607457
0.00550851
0.00490011
0.00424321
0.00352963
0.00274807
0.00188354
0.000930009
0.000103922
0.00513894
0.00454398
0.00392871
0.00344183
0.00318389
0.00313599
0.00323803
0.00345325
0.00371155
0.00393634
0.00410343
0.00423622
0.00438031
0.00458153
0.00487621
0.00528607
0.00581177
0.00642741
0.00708189
0.00770918
0.00824421
0.00863762
0.0088642
0.00892341
0.00883352
0.00862263
0.00832018
0.00795101
0.00753269
0.00707541
0.00658338
0.00605655
0.00549211
0.00488546
0.00423041
0.00351878
0.00273937
0.00187723
0.000926526
0.000103991
0.00509489
0.00456111
0.00401741
0.00358208
0.00334643
0.00331101
0.00341209
0.00362413
0.00389166
0.0041248
0.00429462
0.00442878
0.00457706
0.00478801
0.00509897
0.00552931
0.00607357
0.00669799
0.00734529
0.00794768
0.00844317
0.00878877
0.00896664
0.00898241
0.00885804
0.00862273
0.00830502
0.00792774
0.00750622
0.00704874
0.00655807
0.00603331
0.00547119
0.00486693
0.00421434
0.0035053
0.00272868
0.00186964
0.000922508
0.00010403
0.00514139
0.00465707
0.00418151
0.00379828
0.00358123
0.00354164
0.00364546
0.00385327
0.00412259
0.00435402
0.00451701
0.00464634
0.00479699
0.00501988
0.00535151
0.00580613
0.00636954
0.00699894
0.00763146
0.00819932
0.0086457
0.00893569
0.00905965
0.00902935
0.00886996
0.00861102
0.00827944
0.00789557
0.00747223
0.00701567
0.00652728
0.00600533
0.00544617
0.00484488
0.00419528
0.00348938
0.00271614
0.00186085
0.000917994
0.00010404
0.00528695
0.00483641
0.00442025
0.00408823
0.00389287
0.00384741
0.00393558
0.00413284
0.00439381
0.00461585
0.00476632
0.00488792
0.00504187
0.00528101
0.00563857
0.00612038
0.00670116
0.00732868
0.00793607
0.00845808
0.0088454
0.00907266
0.00913881
0.00906137
0.0088678
0.00858704
0.00824364
0.00785504
0.00743138
0.00697688
0.00649163
0.00597316
0.0054175
0.00481966
0.00417355
0.00347126
0.00270192
0.00185096
0.000913019
0.00010402
)
;

boundaryField
{
    leftWall
    {
        type            nutkWallFunction;
        Cmu             0.09;
        kappa           0.41;
        E               9.8;
        value           nonuniform 0();
    }
    rightWall
    {
        type            nutkWallFunction;
        Cmu             0.09;
        kappa           0.41;
        E               9.8;
        value           nonuniform List<scalar> 
43
(
0
0
1.56782e-09
3.48884e-08
6.34804e-07
1.25532e-06
1.75651e-06
2.17024e-06
2.51745e-06
2.81296e-06
3.06988e-06
3.29582e-06
3.49557e-06
3.67348e-06
3.83307e-06
3.97717e-06
4.10813e-06
4.22793e-06
4.33817e-06
4.44018e-06
4.53502e-06
4.62359e-06
4.70658e-06
4.78454e-06
4.85789e-06
4.92692e-06
4.99185e-06
5.05277e-06
5.10973e-06
5.16274e-06
5.21172e-06
5.2566e-06
5.29726e-06
5.33358e-06
5.36544e-06
5.39276e-06
5.41545e-06
5.43349e-06
5.44687e-06
5.45568e-06
5.46012e-06
5.46037e-06
5.4563e-06
)
;
    }
    lowerWall
    {
        type            nutkWallFunction;
        Cmu             0.09;
        kappa           0.41;
        E               9.8;
        value           nonuniform List<scalar> 
66
(
1.12872e-05
1.08937e-05
1.08937e-05
1.80654e-05
2.132e-05
2.42451e-05
2.68732e-05
2.89727e-05
3.08401e-05
3.27488e-05
3.48818e-05
3.73977e-05
2.79526e-05
2.54233e-05
2.90797e-05
2.6344e-05
0
1.4713e-06
3.47742e-06
5.441e-06
7.47584e-06
9.80549e-06
1.26634e-05
1.62482e-05
2.065e-05
2.59927e-05
0
0
0
1.69666e-08
0
2.13447e-08
3.42663e-07
5.88113e-07
7.60662e-07
8.37282e-07
8.38045e-07
7.78962e-07
6.73429e-07
5.33367e-07
3.70468e-07
2.00194e-07
5.76042e-08
1.21295e-07
6.68362e-08
9.49464e-08
2.8654e-08
0
0
3.41766e-08
7.10674e-08
0
0
5.48207e-09
0
0
0
0
0
0
0
0
0
0
0
0
)
;
    }
    atmosphere
    {
        type            calculated;
        value           nonuniform 0();
    }
    defaultFaces
    {
        type            empty;
    }
    procBoundary1to0
    {
        type            processor;
        value           nonuniform List<scalar> 
44
(
9.96934e-05
0.000637988
0.00113424
0.00165879
0.00221115
0.00276357
0.00329327
0.00378723
0.00424188
0.0046723
0.00514667
0.00566566
0.00621909
0.00679581
0.00737568
0.00793706
0.00846339
0.008944
0.00937262
0.00974567
0.00920591
0.00920591
0.0095618
0.00985517
0.0100933
0.0102852
0.0104356
0.0105126
0.0105186
0.0104566
0.010304
0.0100492
0.00968835
0.00922653
0.00867803
0.00806774
0.00743261
0.00682313
0.00628875
0.0058827
0.00560864
0.00544564
0.00536538
0.00535666
)
;
    }
    procBoundary1to3
    {
        type            processor;
        value           nonuniform List<scalar> 
45
(
0.00547842
0.00572564
0.00601533
0.00618757
0.00597878
0.00552581
0.00510059
0.00473264
0.00444697
0.00427508
0.00422677
0.00429491
0.00446958
0.00471046
0.00491224
0.00504277
0.00515432
0.00531462
0.00557623
0.00596518
0.00647508
0.00706788
0.00768294
0.00825213
0.00871582
0.00903451
0.00919336
0.00919974
0.00907596
0.00885054
0.00855077
0.00819818
0.00780694
0.00738451
0.00693316
0.00645181
0.00593737
0.00538567
0.0047917
0.00414946
0.0034512
0.00268621
0.00184008
0.000907616
0.000103968
)
;
    }
}


// ************************************************************************* //
