/*--------------------------------*- C++ -*----------------------------------*\
| =========                 |                                                 |
| \\      /  F ield         | OpenFOAM: The Open Source CFD Toolbox           |
|  \\    /   O peration     | Version:  5.0                                   |
|   \\  /    A nd           | Web:      www.OpenFOAM.org                      |
|    \\/     M anipulation  |                                                 |
\*---------------------------------------------------------------------------*/
FoamFile
{
    version     2.0;
    format      ascii;
    class       volVectorField;
    location    "0.3";
    object      U;
}
// * * * * * * * * * * * * * * * * * * * * * * * * * * * * * * * * * * * * * //

dimensions      [0 1 -1 0 0 0 0];

internalField   nonuniform List<vector> 
1915
(
(-0.254128 -0.0657485 0)
(-0.0940969 -0.12761 0)
(-0.0781391 -0.0173149 0)
(-0.0319994 -0.212548 0)
(0.0917781 0.0567522 0)
(0.0611295 -0.200617 0)
(0.213683 0.158487 0)
(0.12255 -0.112316 0)
(0.291741 0.280432 0)
(0.158014 0.0201484 0)
(0.345997 0.416131 0)
(0.183449 0.188228 0)
(0.394918 0.562164 0)
(0.207343 0.383041 0)
(0.455632 0.716947 0)
(0.239764 0.612123 0)
(0.548366 0.876842 0)
(0.298978 0.882499 0)
(0.689341 1.02678 0)
(0.391009 1.24428 0)
(0.00365944 -0.000951256 0)
(-0.0106736 0.0157232 0)
(-0.0513739 0.020494 0)
(-0.0896155 0.0189673 0)
(-0.119507 0.0149243 0)
(-0.139699 0.00817728 0)
(-0.149929 0.00230645 0)
(-0.151629 -0.000793799 0)
(-0.147425 -0.00323605 0)
(-0.138935 -0.00488711 0)
(-0.127369 -0.00597305 0)
(-0.113789 -0.00661922 0)
(-0.0990609 -0.00691506 0)
(-0.0838898 -0.00693322 0)
(-0.0688393 -0.00674277 0)
(-0.0543316 -0.00643051 0)
(-0.0405621 -0.00615001 0)
(-0.028077 -0.00562921 0)
(-0.0169893 -0.0047664 0)
(-0.00706784 -0.00412415 0)
(0.00144992 -0.00359489 0)
(0.00865951 -0.00293486 0)
(0.0146015 -0.00239296 0)
(0.0193759 -0.00179425 0)
(0.0229751 -0.00120179 0)
(0.0254503 -0.000729734 0)
(0.0269154 -0.000263728 0)
(0.0274101 0.000139363 0)
(0.0269988 0.000473065 0)
(0.0257632 0.000863017 0)
(0.0237424 0.0012915 0)
(0.0210034 0.00170066 0)
(0.0176962 0.00194891 0)
(0.0138692 0.00211414 0)
(0.00963403 0.00232815 0)
(0.00527325 0.00228033 0)
(0.00118294 0.00202112 0)
(-0.00218415 0.00131994 0)
(-0.00373108 -0.000209827 0)
(-0.0031595 -0.00221952 0)
(-0.0132717 0.00526483 0)
(-0.0370446 0.0320624 0)
(-0.0784705 0.0399839 0)
(-0.113808 0.0352515 0)
(-0.138849 0.0258417 0)
(-0.154257 0.0155628 0)
(-0.161445 0.00619261 0)
(-0.162187 -0.00127879 0)
(-0.157805 -0.00699426 0)
(-0.149239 -0.0111314 0)
(-0.137691 -0.0139689 0)
(-0.124136 -0.0157423 0)
(-0.109389 -0.016649 0)
(-0.0941169 -0.0168563 0)
(-0.0788601 -0.016509 0)
(-0.064053 -0.0157265 0)
(-0.0500188 -0.0145829 0)
(-0.0369896 -0.0131357 0)
(-0.0251683 -0.0117019 0)
(-0.0145961 -0.0102937 0)
(-0.00532132 -0.00878489 0)
(0.00258478 -0.00737286 0)
(0.00922185 -0.00598381 0)
(0.0145882 -0.00471362 0)
(0.018805 -0.00348742 0)
(0.0219078 -0.0023161 0)
(0.0239641 -0.00122285 0)
(0.0250518 -0.000181886 0)
(0.0252256 0.000788077 0)
(0.02456 0.00166081 0)
(0.0231319 0.00242415 0)
(0.0210206 0.00309449 0)
(0.0183036 0.00367673 0)
(0.0150701 0.00418963 0)
(0.0114611 0.00445714 0)
(0.007674 0.00441248 0)
(0.00403293 0.00390877 0)
(0.000890219 0.00270084 0)
(-0.00120072 0.000403467 0)
(-0.0020441 -0.00287339 0)
(-0.0256316 0.0308411 0)
(-0.0559316 0.0598253 0)
(-0.0939546 0.0657554 0)
(-0.125146 0.0557869 0)
(-0.147255 0.0397589 0)
(-0.160956 0.0232257 0)
(-0.167284 0.0087752 0)
(-0.167365 -0.00276353 0)
(-0.162344 -0.0116058 0)
(-0.153412 -0.0181088 0)
(-0.141697 -0.022617 0)
(-0.128126 -0.025469 0)
(-0.113465 -0.0269628 0)
(-0.0983316 -0.0273561 0)
(-0.0832227 -0.0268747 0)
(-0.068539 -0.0257151 0)
(-0.0545905 -0.0240381 0)
(-0.0415806 -0.0219616 0)
(-0.0296601 -0.019688 0)
(-0.0189526 -0.0173559 0)
(-0.0095273 -0.0149892 0)
(-0.00139515 -0.0126571 0)
(0.00547829 -0.0104026 0)
(0.0111318 -0.0082481 0)
(0.0156243 -0.00620674 0)
(0.0190232 -0.0042897 0)
(0.0214027 -0.00248436 0)
(0.0228382 -0.000790081 0)
(0.0234015 0.000776176 0)
(0.0231654 0.00220725 0)
(0.0222058 0.00349726 0)
(0.0206066 0.00464447 0)
(0.0184546 0.0056307 0)
(0.0158594 0.00641803 0)
(0.0129454 0.00689852 0)
(0.00983665 0.00690517 0)
(0.00671052 0.0062537 0)
(0.00378044 0.00468886 0)
(0.00121617 0.00168353 0)
(-0.000596257 -0.00352596 0)
(-0.0315054 0.0615349 0)
(-0.0685079 0.0885435 0)
(-0.106632 0.0899767 0)
(-0.136917 0.0742996 0)
(-0.157611 0.0521897 0)
(-0.169717 0.0299991 0)
(-0.174407 0.0106722 0)
(-0.172955 -0.00488668 0)
(-0.166657 -0.016838 0)
(-0.156772 -0.0256125 0)
(-0.144395 -0.0316835 0)
(-0.130418 -0.0355138 0)
(-0.115559 -0.0375142 0)
(-0.100382 -0.0380378 0)
(-0.0853278 -0.037387 0)
(-0.0707479 -0.0358214 0)
(-0.0569085 -0.0335594 0)
(-0.0439892 -0.0307844 0)
(-0.0321261 -0.027711 0)
(-0.0214422 -0.024504 0)
(-0.0120045 -0.0212449 0)
(-0.00382116 -0.0180196 0)
(0.00313187 -0.01489 0)
(0.00889764 -0.0118994 0)
(0.0135288 -0.00906918 0)
(0.0170874 -0.00641023 0)
(0.0196475 -0.00391924 0)
(0.0212934 -0.00159612 0)
(0.022109 0.000548332 0)
(0.0221706 0.00250357 0)
(0.0215533 0.00426141 0)
(0.0203396 0.00581355 0)
(0.0186225 0.00713649 0)
(0.0165096 0.00818211 0)
(0.0141091 0.00884168 0)
(0.0115116 0.00895149 0)
(0.00880304 0.00831069 0)
(0.0060759 0.00665619 0)
(0.00336652 0.0034448 0)
(0.00119537 -0.00281948 0)
(-0.0359482 0.0973107 0)
(-0.0807936 0.119757 0)
(-0.121334 0.11495 0)
(-0.152367 0.0923263 0)
(-0.171899 0.0635409 0)
(-0.181911 0.0354447 0)
(-0.184168 0.0111913 0)
(-0.180359 -0.00828437 0)
(-0.172019 -0.0231635 0)
(-0.160497 -0.0339956 0)
(-0.14689 -0.0414154 0)
(-0.132054 -0.046034 0)
(-0.116648 -0.0483849 0)
(-0.10117 -0.0489184 0)
(-0.0860001 -0.0480124 0)
(-0.0714262 -0.0459861 0)
(-0.0576633 -0.0431112 0)
(-0.0448567 -0.0396238 0)
(-0.0331152 -0.0357567 0)
(-0.0225336 -0.0316937 0)
(-0.0131697 -0.0275556 0)
(-0.0050347 -0.0234481 0)
(0.00189576 -0.0194546 0)
(0.00766842 -0.0156368 0)
(0.0123359 -0.0120292 0)
(0.0159564 -0.00864473 0)
(0.0186034 -0.00548277 0)
(0.0203663 -0.00254382 0)
(0.0213359 0.000161691 0)
(0.0215934 0.00261988 0)
(0.021214 0.00481904 0)
(0.0202766 0.00674626 0)
(0.0188712 0.00837614 0)
(0.0170955 0.00965714 0)
(0.0150409 0.0104876 0)
(0.0127751 0.0107189 0)
(0.0103335 0.0101623 0)
(0.00772568 0.00856975 0)
(0.00496029 0.00546853 0)
(0.00244883 -0.000545673 0)
(-0.0430508 0.14049 0)
(-0.0986861 0.155406 0)
(-0.142351 0.141975 0)
(-0.174251 0.110238 0)
(-0.191813 0.0735141 0)
(-0.198646 0.0389416 0)
(-0.197366 0.00965293 0)
(-0.190189 -0.0135717 0)
(-0.178918 -0.0310858 0)
(-0.165007 -0.0436458 0)
(-0.149557 -0.0520928 0)
(-0.133379 -0.0572114 0)
(-0.117059 -0.0596719 0)
(-0.101014 -0.060027 0)
(-0.0855422 -0.0587297 0)
(-0.0708611 -0.0561542 0)
(-0.0571219 -0.0526141 0)
(-0.044423 -0.048382 0)
(-0.0328319 -0.0437079 0)
(-0.0224056 -0.0387949 0)
(-0.0131833 -0.0337923 0)
(-0.00517285 -0.0288234 0)
(0.00165366 -0.0239886 0)
(0.00734886 -0.0193648 0)
(0.0119694 -0.014998 0)
(0.0155726 -0.0109066 0)
(0.0182298 -0.00709335 0)
(0.0200315 -0.00356121 0)
(0.0210728 -0.000320805 0)
(0.0214388 0.00261333 0)
(0.0212048 0.00522743 0)
(0.0204444 0.00750649 0)
(0.0192389 0.00942517 0)
(0.0176737 0.0109338 0)
(0.0158247 0.0119435 0)
(0.0137396 0.0123255 0)
(0.0114213 0.0119141 0)
(0.00882692 0.0104925 0)
(0.00593535 0.00767258 0)
(0.00299153 0.00230519 0)
(-0.0575215 0.195686 0)
(-0.129018 0.196758 0)
(-0.173912 0.17087 0)
(-0.205092 0.127243 0)
(-0.218724 0.0811282 0)
(-0.220674 0.0395314 0)
(-0.214436 0.00519656 0)
(-0.202713 -0.0214921 0)
(-0.187531 -0.0412253 0)
(-0.170434 -0.0550636 0)
(-0.152509 -0.0641076 0)
(-0.134501 -0.0693452 0)
(-0.116902 -0.0715961 0)
(-0.100027 -0.0715185 0)
(-0.0840744 -0.069638 0)
(-0.0691732 -0.0663769 0)
(-0.0554004 -0.0620802 0)
(-0.0427953 -0.057044 0)
(-0.0313741 -0.0515317 0)
(-0.0211476 -0.0457619 0)
(-0.0121261 -0.0399025 0)
(-0.00430647 -0.0340886 0)
(0.00234516 -0.0284321 0)
(0.00788882 -0.0230219 0)
(0.0123884 -0.0179147 0)
(0.015903 -0.0131362 0)
(0.0185012 -0.00869368 0)
(0.0202713 -0.0045918 0)
(0.0213102 -0.000841063 0)
(0.0217059 0.00254463 0)
(0.0215325 0.00555166 0)
(0.0208581 0.00816547 0)
(0.0197539 0.0103632 0)
(0.0182918 0.0121009 0)
(0.0165328 0.0133043 0)
(0.014509 0.0138668 0)
(0.0122036 0.0136528 0)
(0.00954624 0.0124877 0)
(0.00651183 0.0100773 0)
(0.00323349 0.00549207 0)
(-0.0856748 0.276869 0)
(-0.180081 0.244305 0)
(-0.219796 0.199649 0)
(-0.246476 0.141308 0)
(-0.253087 0.0847344 0)
(-0.248011 0.0359395 0)
(-0.235269 -0.00317567 0)
(-0.217803 -0.0328489 0)
(-0.197759 -0.0542312 0)
(-0.176706 -0.068768 0)
(-0.155697 -0.0778671 0)
(-0.135392 -0.0827463 0)
(-0.116169 -0.0843871 0)
(-0.0982193 -0.0835544 0)
(-0.0816236 -0.0808423 0)
(-0.066403 -0.0767137 0)
(-0.0525462 -0.0715348 0)
(-0.0400235 -0.0656118 0)
(-0.0287917 -0.0592135 0)
(-0.0188079 -0.0525662 0)
(-0.010044 -0.0458475 0)
(-0.00247784 -0.0391976 0)
(0.00393265 -0.0327351 0)
(0.00925615 -0.0265574 0)
(0.0135657 -0.0207296 0)
(0.016924 -0.0152846 0)
(0.0193975 -0.0102342 0)
(0.0210701 -0.005585 0)
(0.0220377 -0.00134631 0)
(0.0223896 0.00246994 0)
(0.0221992 0.00585239 0)
(0.0215288 0.00878917 0)
(0.0204387 0.0112613 0)
(0.0189881 0.0132329 0)
(0.0172254 0.0146453 0)
(0.015171 0.015415 0)
(0.0127971 0.0154374 0)
(0.0100248 0.0145826 0)
(0.00683947 0.0126434 0)
(0.00332313 0.00886625 0)
(-0.143949 0.391386 0)
(-0.263307 0.295931 0)
(-0.282086 0.223302 0)
(-0.297798 0.149002 0)
(-0.293644 0.0821885 0)
(-0.279472 0.0267914 0)
(-0.258954 -0.0164265 0)
(-0.234818 -0.0483746 0)
(-0.209163 -0.0706888 0)
(-0.183527 -0.0852289 0)
(-0.158917 -0.0937405 0)
(-0.13591 -0.0976944 0)
(-0.114762 -0.0982477 0)
(-0.0955294 -0.0962742 0)
(-0.0781567 -0.0924309 0)
(-0.0625407 -0.0872126 0)
(-0.0485669 -0.0809956 0)
(-0.0361257 -0.0740821 0)
(-0.0251086 -0.0667341 0)
(-0.0154132 -0.0591762 0)
(-0.0069644 -0.0515866 0)
(0.000285584 -0.0441049 0)
(0.0063898 -0.0368501 0)
(0.0114266 -0.029923 0)
(0.0154795 -0.0233951 0)
(0.0186165 -0.0173051 0)
(0.0209011 -0.0116687 0)
(0.0224123 -0.00649374 0)
(0.0232435 -0.00178739 0)
(0.0234838 0.00244147 0)
(0.0232052 0.0061849 0)
(0.0224643 0.00943521 0)
(0.0213117 0.0121791 0)
(0.0197951 0.0143906 0)
(0.0179524 0.0160262 0)
(0.0157958 0.0170239 0)
(0.0132934 0.0173086 0)
(0.0103696 0.0167912 0)
(0.00702755 0.0153364 0)
(0.0033342 0.0123256 0)
(-0.207834 0.604676 0)
(-0.374712 0.336408 0)
(-0.35799 0.233325 0)
(-0.354245 0.146123 0)
(-0.336538 0.0714792 0)
(-0.312294 0.0110778 0)
(-0.283597 -0.0351653 0)
(-0.252497 -0.0685311 0)
(-0.220911 -0.090999 0)
(-0.190342 -0.104795 0)
(-0.161794 -0.112017 0)
(-0.135796 -0.114415 0)
(-0.112503 -0.113342 0)
(-0.0918343 -0.109789 0)
(-0.0735937 -0.104472 0)
(-0.0575406 -0.0979067 0)
(-0.0434419 -0.0904687 0)
(-0.0310981 -0.0824419 0)
(-0.020331 -0.0740676 0)
(-0.0109761 -0.0655566 0)
(-0.00290467 -0.0570784 0)
(0.00396364 -0.048765 0)
(0.00969615 -0.04073 0)
(0.0143807 -0.0330723 0)
(0.0181109 -0.025866 0)
(0.0209613 -0.0191534 0)
(0.0229942 -0.0129531 0)
(0.0242826 -0.00727271 0)
(0.0249155 -0.00211756 0)
(0.0249803 0.00250724 0)
(0.0245476 0.00659865 0)
(0.0236694 0.0101546 0)
(0.0223873 0.0131688 0)
(0.020739 0.0156252 0)
(0.0187534 0.0174943 0)
(0.0164381 0.0187345 0)
(0.0137614 0.019296 0)
(0.0106586 0.0191245 0)
(0.00715252 0.0181398 0)
(0.00331385 0.0158276 0)
(0.889072 1.11767 0)
(0.78859 1.47528 0)
(1.0379 1.12293 0)
(1.07372 1.39485 0)
(1.13223 1.08213 0)
(1.20965 1.25581 0)
(1.19719 1.03531 0)
(1.2725 1.1654 0)
(1.24017 0.990373 0)
(1.30659 1.1016 0)
(1.26197 0.946119 0)
(1.32143 1.0464 0)
(1.26484 0.903082 0)
(1.31943 0.997479 0)
(1.25128 0.861697 0)
(1.30253 0.953328 0)
(1.22318 0.821673 0)
(1.27215 0.911797 0)
(1.18244 0.782637 0)
(1.22988 0.871552 0)
(1.17836 0.831963 0)
(1.12194 0.792549 0)
(1.06766 0.752262 0)
(1.02443 0.715101 0)
(0.997132 0.690615 0)
(0.970341 0.668532 0)
(0.9386 0.5961 0)
(0.970898 0.544281 0)
(1.02917 0.573945 0)
(1.07599 0.579639 0)
(1.08992 0.562038 0)
(1.07093 0.532611 0)
(1.02755 0.495912 0)
(0.96738 0.453505 0)
(0.895407 0.405845 0)
(0.813034 0.351532 0)
(0.715171 0.289588 0)
(0.594108 0.221925 0)
(0.452829 0.150135 0)
(0.302992 0.069613 0)
(0.14681 -0.025492 0)
(-0.0265761 -0.122997 0)
(-0.201569 -0.207162 0)
(0.704395 0.884013 0)
(-0.354028 0.307416 0)
(-2.62961 -0.222379 0)
(-0.870046 0.109842 0)
(1.15257 1.28213 0)
(0.78177 0.95253 0)
(-0.0034213 0.530955 0)
(-0.787503 -0.2538 0)
(1.31706 1.2893 0)
(1.23634 1.17836 0)
(0.941714 0.953465 0)
(0.478251 0.493503 0)
(1.37297 1.23608 0)
(1.40622 1.23392 0)
(1.30946 1.13955 0)
(1.10827 0.945874 0)
(1.38793 1.18168 0)
(1.45063 1.22256 0)
(1.44608 1.2096 0)
(1.35555 1.13128 0)
(1.38714 1.1274 0)
(1.44758 1.18614 0)
(1.48022 1.21589 0)
(1.45646 1.20558 0)
(1.37579 1.07807 0)
(1.42868 1.14474 0)
(1.47082 1.19651 0)
(1.48328 1.22375 0)
(1.35368 1.03426 0)
(1.40141 1.10517 0)
(1.44366 1.16833 0)
(1.47213 1.21808 0)
(1.32042 0.993428 0)
(1.36559 1.06725 0)
(1.40696 1.1366 0)
(1.44141 1.19952 0)
(1.27661 0.953692 0)
(1.32078 1.02967 0)
(1.36214 1.10292 0)
(1.39915 1.17342 0)
(1.22424 0.914241 0)
(1.26814 0.991676 0)
(1.31006 1.0677 0)
(1.34883 1.14297 0)
(1.16703 0.874804 0)
(1.21064 0.953102 0)
(1.25302 1.03106 0)
(1.29304 1.10969 0)
(1.11088 0.835131 0)
(1.15317 0.914252 0)
(1.19501 0.993566 0)
(1.23523 1.07463 0)
(1.06425 0.795984 0)
(1.10271 0.875634 0)
(1.14161 0.956318 0)
(1.17997 1.03931 0)
(1.03318 0.766808 0)
(1.06682 0.841046 0)
(1.09951 0.921217 0)
(1.13257 1.00584 0)
(1.01562 0.74684 0)
(1.04615 0.819905 0)
(1.07235 0.894227 0)
(1.09776 0.977341 0)
(0.997501 0.718806 0)
(1.03051 0.80366 0)
(1.05476 0.880094 0)
(1.07486 0.959096 0)
(1.00267 0.623705 0)
(1.01485 0.77371 0)
(1.04034 0.865485 0)
(1.05716 0.950745 0)
(1.02524 0.632329 0)
(1.02685 0.716505 0)
(1.04099 0.843381 0)
(1.03949 0.944897 0)
(1.07366 0.664665 0)
(1.05913 0.735256 0)
(1.08353 0.801114 0)
(1.02967 0.945059 0)
(1.1025 0.669224 0)
(1.091 0.761471 0)
(1.10638 0.822039 0)
(1.01038 0.987732 0)
(1.09277 0.660148 0)
(1.08539 0.778686 0)
(1.08424 0.880254 0)
(0.972487 1.03506 0)
(1.05492 0.648319 0)
(1.04942 0.796389 0)
(1.0487 0.935908 0)
(0.964697 1.07477 0)
(0.998398 0.634981 0)
(0.992759 0.816103 0)
(0.992671 0.983898 0)
(0.901139 1.1297 0)
(0.929994 0.620534 0)
(0.924141 0.840477 0)
(0.920916 1.04058 0)
(0.797675 1.18375 0)
(0.853796 0.602528 0)
(0.851722 0.867948 0)
(0.84575 1.11211 0)
(0.691389 1.23973 0)
(0.764637 0.577862 0)
(0.776039 0.892147 0)
(0.761519 1.18998 0)
(0.601776 1.30118 0)
(0.652728 0.546902 0)
(0.690439 0.910488 0)
(0.617809 1.27828 0)
(0.527052 1.36397 0)
(0.522876 0.506082 0)
(0.596416 0.915456 0)
(0.50328 1.35696 0)
(0.476126 1.39618 0)
(0.390228 0.439336 0)
(0.497189 0.880505 0)
(0.458274 1.39603 0)
(0.452495 1.40922 0)
(0.253041 0.333657 0)
(0.386581 0.786015 0)
(0.443466 1.40238 0)
(0.443602 1.4114 0)
(0.0667978 0.21401 0)
(0.145501 0.657523 0)
(0.430054 1.37731 0)
(0.439606 1.4036 0)
(-0.11191 0.109437 0)
(-0.0285808 0.500052 0)
(0.222624 1.02563 0)
(0.432485 1.375 0)
(-0.73934 0.577177 0)
(-0.512382 0.320241 0)
(-0.439106 0.217665 0)
(-0.405701 0.129299 0)
(-0.37516 0.0518465 0)
(-0.34233 -0.0113162 0)
(-0.306556 -0.0594728 0)
(-0.269134 -0.0935132 0)
(-0.23187 -0.115461 0)
(-0.196384 -0.127816 0)
(-0.163792 -0.133039 0)
(-0.134661 -0.133212 0)
(-0.109097 -0.129919 0)
(-0.086907 -0.124292 0)
(-0.0677579 -0.117108 0)
(-0.051266 -0.108898 0)
(-0.0370681 -0.100022 0)
(-0.0248635 -0.0907336 0)
(-0.0144004 -0.0812377 0)
(-0.00545088 -0.0717169 0)
(0.00217042 -0.0623211 0)
(0.00858233 -0.0531674 0)
(0.0138705 -0.0443573 0)
(0.018132 -0.0359827 0)
(0.0214699 -0.0281152 0)
(0.0239657 -0.0207984 0)
(0.0256812 -0.0140521 0)
(0.0266839 -0.00788327 0)
(0.0270568 -0.00229451 0)
(0.0268843 0.00271385 0)
(0.0262351 0.00714447 0)
(0.0251568 0.0110013 0)
(0.0236841 0.0142856 0)
(0.0218461 0.0169913 0)
(0.0196648 0.0191028 0)
(0.0171444 0.0205961 0)
(0.0142561 0.0214431 0)
(0.0109488 0.0216166 0)
(0.00726604 0.021078 0)
(0.00329049 0.0193899 0)
(-0.751942 0.241215 0)
(-0.509099 0.238601 0)
(-0.46441 0.179393 0)
(-0.429923 0.102847 0)
(-0.398716 0.0263437 0)
(-0.363583 -0.0385673 0)
(-0.32421 -0.0883815 0)
(-0.282388 -0.122918 0)
(-0.24047 -0.144006 0)
(-0.200566 -0.154403 0)
(-0.164148 -0.156991 0)
(-0.131958 -0.154271 0)
(-0.104142 -0.148136 0)
(-0.0804461 -0.139899 0)
(-0.0604187 -0.130415 0)
(-0.0435395 -0.120226 0)
(-0.02931 -0.109668 0)
(-0.0173196 -0.098949 0)
(-0.00723973 -0.0882212 0)
(0.00122063 -0.077624 0)
(0.00830558 -0.0672759 0)
(0.0141763 -0.05727 0)
(0.0189389 -0.0476884 0)
(0.0227 -0.0386093 0)
(0.0255716 -0.0300976 0)
(0.0276416 -0.0221949 0)
(0.0289722 -0.0149205 0)
(0.0296248 -0.00827922 0)
(0.0296759 -0.00227022 0)
(0.029206 0.00311095 0)
(0.0282809 0.00787269 0)
(0.0269446 0.0120256 0)
(0.0252253 0.015579 0)
(0.0231446 0.0185371 0)
(0.0207189 0.0208969 0)
(0.0179506 0.0226494 0)
(0.0148155 0.0237841 0)
(0.0112779 0.0242947 0)
(0.00739985 0.0241721 0)
(0.00327927 0.0230329 0)
(-0.430247 0.196701 0)
(-0.346829 0.177572 0)
(-0.397057 0.154207 0)
(-0.405727 0.0833711 0)
(-0.395288 0.00333343 0)
(-0.36892 -0.0660994 0)
(-0.332118 -0.119266 0)
(-0.28934 -0.155238 0)
(-0.244709 -0.175773 0)
(-0.201498 -0.184069 0)
(-0.161891 -0.183598 0)
(-0.127018 -0.177427 0)
(-0.097181 -0.167872 0)
(-0.0721395 -0.156503 0)
(-0.0513655 -0.144288 0)
(-0.0342218 -0.131785 0)
(-0.0200804 -0.119298 0)
(-0.0084179 -0.106977 0)
(0.00117316 -0.0949105 0)
(0.00904469 -0.0831766 0)
(0.0154971 -0.071848 0)
(0.0207343 -0.060984 0)
(0.0248846 -0.0506406 0)
(0.0280649 -0.0408765 0)
(0.0303945 -0.0317447 0)
(0.0319675 -0.0232808 0)
(0.032846 -0.0155009 0)
(0.0330856 -0.00840741 0)
(0.0327551 -0.00199571 0)
(0.0319303 0.00374377 0)
(0.0306742 0.00882554 0)
(0.0290267 0.013267 0)
(0.0270103 0.0170858 0)
(0.0246404 0.0202955 0)
(0.0219282 0.0229046 0)
(0.0188753 0.0249166 0)
(0.0154627 0.0263352 0)
(0.0116692 0.0271681 0)
(0.00757357 0.0274267 0)
(0.0032891 0.0267619 0)
(0.598026 0.65407 0)
(0.0446338 0.358907 0)
(-0.181773 0.206864 0)
(-0.303022 0.0983036 0)
(-0.347394 -0.00341421 0)
(-0.348236 -0.0866362 0)
(-0.32446 -0.147949 0)
(-0.286495 -0.188072 0)
(-0.242308 -0.2094 0)
(-0.197605 -0.216023 0)
(-0.155911 -0.212395 0)
(-0.119057 -0.202391 0)
(-0.0876659 -0.188937 0)
(-0.0616073 -0.173961 0)
(-0.0403357 -0.158605 0)
(-0.0231324 -0.143463 0)
(-0.00925727 -0.128806 0)
(0.00192116 -0.11472 0)
(0.0108878 -0.101211 0)
(0.0180509 -0.0882851 0)
(0.0237609 -0.075954 0)
(0.0282622 -0.0642324 0)
(0.0317065 -0.0531424 0)
(0.0342204 -0.0427177 0)
(0.0359297 -0.0329943 0)
(0.0369329 -0.0239982 0)
(0.0372916 -0.0157399 0)
(0.0370551 -0.00821824 0)
(0.0362844 -0.00142419 0)
(0.0350496 0.00465705 0)
(0.03341 0.010046 0)
(0.0314017 0.0147668 0)
(0.029042 0.0188446 0)
(0.0263403 0.0223022 0)
(0.0233036 0.025158 0)
(0.0199329 0.0274261 0)
(0.0162138 0.0291203 0)
(0.0121383 0.0302582 0)
(0.00779929 0.0308629 0)
(0.00332586 0.030604 0)
(1.15107 0.988124 0)
(0.709738 0.733812 0)
(0.250131 0.449728 0)
(-0.0652527 0.197605 0)
(-0.221171 0.0299098 0)
(-0.283356 -0.0863039 0)
(-0.291719 -0.166545 0)
(-0.268955 -0.21717 0)
(-0.230492 -0.242596 0)
(-0.187096 -0.248961 0)
(-0.144971 -0.242577 0)
(-0.107204 -0.228644 0)
(-0.0749916 -0.210971 0)
(-0.0484334 -0.192009 0)
(-0.0270467 -0.173158 0)
(-0.010081 -0.155087 0)
(0.00328494 -0.138045 0)
(0.0137785 -0.122046 0)
(0.021954 -0.107007 0)
(0.0282663 -0.0928442 0)
(0.0331086 -0.0794984 0)
(0.036762 -0.0669281 0)
(0.0393994 -0.0551143 0)
(0.0411567 -0.0440599 0)
(0.0421642 -0.0337799 0)
(0.0425234 -0.0242866 0)
(0.0422943 -0.0155824 0)
(0.0415194 -0.00766097 0)
(0.0402514 -0.000508433 0)
(0.0385536 0.00589503 0)
(0.0364807 0.0115755 0)
(0.034065 0.0165637 0)
(0.031319 0.0208917 0)
(0.0282467 0.0245907 0)
(0.0248509 0.0276875 0)
(0.0211315 0.0302051 0)
(0.0170781 0.0321642 0)
(0.0126939 0.0335883 0)
(0.00808345 0.0345061 0)
(0.00339183 0.03459 0)
(1.36363 1.14499 0)
(1.17375 1.02648 0)
(0.795462 0.801079 0)
(0.369406 0.47832 0)
(0.0331642 0.158916 0)
(-0.144365 -0.034933 0)
(-0.218898 -0.159186 0)
(-0.229703 -0.234749 0)
(-0.2058 -0.271563 0)
(-0.167973 -0.280887 0)
(-0.127749 -0.272951 0)
(-0.0905423 -0.255398 0)
(-0.0585207 -0.233423 0)
(-0.0321842 -0.210246 0)
(-0.0112086 -0.187641 0)
(0.00512135 -0.166417 0)
(0.0176705 -0.146822 0)
(0.0272338 -0.128795 0)
(0.034417 -0.112159 0)
(0.0397119 -0.0967324 0)
(0.0435456 -0.082373 0)
(0.0462287 -0.0689745 0)
(0.0479518 -0.0564695 0)
(0.0488576 -0.0448254 0)
(0.0490793 -0.0340313 0)
(0.0487195 -0.0240823 0)
(0.0478351 -0.0149707 0)
(0.0464607 -0.00668304 0)
(0.0446399 0.000799401 0)
(0.0424281 0.00750139 0)
(0.0398749 0.0134545 0)
(0.0370082 0.018695 0)
(0.0338361 0.0232617 0)
(0.0303573 0.0271929 0)
(0.0265703 0.0305224 0)
(0.0224734 0.0332802 0)
(0.018059 0.035492 0)
(0.0133395 0.0371834 0)
(0.00842858 0.0383843 0)
(0.0034873 0.0387554 0)
(1.44691 1.21725 0)
(1.35783 1.16852 0)
(1.18621 1.04794 0)
(0.844874 0.800635 0)
(0.440182 0.440359 0)
(0.092279 0.114781 0)
(-0.0904288 -0.0997741 0)
(-0.16011 -0.228167 0)
(-0.163963 -0.290333 0)
(-0.13799 -0.308848 0)
(-0.102866 -0.301847 0)
(-0.0681436 -0.281574 0)
(-0.0376182 -0.255541 0)
(-0.0124318 -0.228125 0)
(0.00745761 -0.201651 0)
(0.0226588 -0.177148 0)
(0.0340187 -0.154895 0)
(0.0423563 -0.134772 0)
(0.048311 -0.116504 0)
(0.0523979 -0.0998115 0)
(0.0550666 -0.0844587 0)
(0.0566477 -0.0702677 0)
(0.0573431 -0.0571166 0)
(0.0572992 -0.0449324 0)
(0.0566497 -0.0336749 0)
(0.0554957 -0.0233192 0)
(0.0538892 -0.013845 0)
(0.0518558 -0.00523114 0)
(0.0494287 0.002547 0)
(0.0466546 0.00951922 0)
(0.0435769 0.0157221 0)
(0.0402188 0.0211968 0)
(0.0365838 0.0259878 0)
(0.0326653 0.0301391 0)
(0.0284574 0.0336908 0)
(0.0239563 0.0366777 0)
(0.0191554 0.039129 0)
(0.0140744 0.0410696 0)
(0.00883429 0.0425267 0)
(0.00361154 0.0431366 0)
(1.47007 1.24372 0)
(1.42862 1.23464 0)
(1.35066 1.18603 0)
(1.15623 1.02837 0)
(0.813826 0.745176 0)
(0.408346 0.37213 0)
(0.0986303 0.0363829 0)
(-0.0520683 -0.18047 0)
(-0.0998036 -0.290199 0)
(-0.0945281 -0.328558 0)
(-0.0688896 -0.32697 0)
(-0.0391122 -0.305751 0)
(-0.0116884 -0.276351 0)
(0.011216 -0.244952 0)
(0.0292127 -0.214682 0)
(0.0426999 -0.186898 0)
(0.0524244 -0.161971 0)
(0.059193 -0.139744 0)
(0.0636503 -0.119857 0)
(0.0663173 -0.101927 0)
(0.0676514 -0.0856266 0)
(0.0679911 -0.070698 0)
(0.0675417 -0.0569604 0)
(0.0664484 -0.0442971 0)
(0.0648419 -0.032636 0)
(0.0628192 -0.0219304 0)
(0.0604252 -0.0121458 0)
(0.0576752 -0.00325187 0)
(0.0545911 0.00478206 0)
(0.0512095 0.0119913 0)
(0.0475663 0.0184168 0)
(0.0436796 0.0241038 0)
(0.0395479 0.0291015 0)
(0.0351594 0.0334583 0)
(0.0305033 0.0372194 0)
(0.0255733 0.0404232 0)
(0.0203621 0.0431003 0)
(0.0148947 0.045273 0)
(0.00929777 0.0469623 0)
(0.00376304 0.047769 0)
(1.45957 1.24763 0)
(1.4464 1.27023 0)
(1.40302 1.25989 0)
(1.30897 1.2021 0)
(1.06494 1.00744 0)
(0.717577 0.676496 0)
(0.347449 0.256367 0)
(0.101548 -0.0743769 0)
(-0.00766176 -0.259121 0)
(-0.0345579 -0.333831 0)
(-0.0243668 -0.345162 0)
(-0.00265178 -0.326099 0)
(0.0197676 -0.294662 0)
(0.0390888 -0.259891 0)
(0.0542693 -0.226118 0)
(0.0653567 -0.195209 0)
(0.0729379 -0.167701 0)
(0.0777541 -0.143442 0)
(0.0804198 -0.122004 0)
(0.0814389 -0.102911 0)
(0.08126 -0.0857386 0)
(0.080215 -0.0701505 0)
(0.0785027 -0.0559038 0)
(0.0762608 -0.0428358 0)
(0.0736128 -0.0308411 0)
(0.0706487 -0.0198503 0)
(0.0674042 -0.00981421 0)
(0.063883 -0.000692473 0)
(0.0600944 0.00755184 0)
(0.0560635 0.0149598 0)
(0.0518176 0.0215759 0)
(0.0473686 0.0274494 0)
(0.0427096 0.0326328 0)
(0.0378238 0.0371781 0)
(0.0326954 0.041134 0)
(0.0273138 0.0445412 0)
(0.0216707 0.04743 0)
(0.0157938 0.0498192 0)
(0.00981439 0.0517204 0)
(0.0039395 0.0526871 0)
(1.42824 1.23737 0)
(1.43469 1.28265 0)
(1.41258 1.30238 0)
(1.36498 1.28905 0)
(1.25142 1.19643 0)
(0.985566 0.948833 0)
(0.636958 0.541471 0)
(0.303429 0.104305 0)
(0.116456 -0.183303 0)
(0.0445551 -0.316574 0)
(0.0319463 -0.352382 0)
(0.0418204 -0.340422 0)
(0.0570802 -0.309075 0)
(0.071387 -0.271962 0)
(0.0827172 -0.235252 0)
(0.0906548 -0.201555 0)
(0.0955435 -0.171688 0)
(0.0979989 -0.145562 0)
(0.0985642 -0.122711 0)
(0.0977004 -0.102578 0)
(0.0958275 -0.0846478 0)
(0.0932553 -0.0685061 0)
(0.0901645 -0.0538482 0)
(0.0866784 -0.0404655 0)
(0.0829085 -0.0282189 0)
(0.0789341 -0.0170162 0)
(0.0747797 -0.00679407 0)
(0.0704363 0.0024973 0)
(0.0658995 0.0109015 0)
(0.0611815 0.0184648 0)
(0.0562996 0.0252353 0)
(0.0512587 0.0312655 0)
(0.046046 0.0366104 0)
(0.0406389 0.0413246 0)
(0.0350166 0.0454587 0)
(0.0291639 0.0490547 0)
(0.0230695 0.0521414 0)
(0.0167629 0.0547324 0)
(0.0103782 0.0568283 0)
(0.00413791 0.0579238 0)
(1.38379 1.21769 0)
(1.40424 1.28106 0)
(1.39913 1.32183 0)
(1.37355 1.33234 0)
(1.31632 1.30669 0)
(1.14808 1.1444 0)
(0.861734 0.805861 0)
(0.519765 0.337351 0)
(0.265632 -0.0560585 0)
(0.142985 -0.2688 0)
(0.100714 -0.343849 0)
(0.0945808 -0.346106 0)
(0.100306 -0.318007 0)
(0.108074 -0.28009 0)
(0.114486 -0.241305 0)
(0.118505 -0.205361 0)
(0.120142 -0.173504 0)
(0.119824 -0.145782 0)
(0.117981 -0.121731 0)
(0.115002 -0.100735 0)
(0.111259 -0.0822011 0)
(0.107024 -0.0656423 0)
(0.102446 -0.0506948 0)
(0.0976275 -0.0371046 0)
(0.0926624 -0.0247004 0)
(0.087615 -0.0133688 0)
(0.0824965 -0.00303301 0)
(0.0772848 0.00636416 0)
(0.0719605 0.014873 0)
(0.0665223 0.0225438 0)
(0.060976 0.0294283 0)
(0.0553181 0.0355818 0)
(0.0495292 0.0410608 0)
(0.0435808 0.0459216 0)
(0.0374466 0.0502155 0)
(0.0311063 0.0539847 0)
(0.0245445 0.0572556 0)
(0.0177913 0.0600351 0)
(0.0109822 0.0623112 0)
(0.00435488 0.0635087 0)
(1.33133 1.19168 0)
(1.36088 1.2695 0)
(1.36948 1.32831 0)
(1.35661 1.36224 0)
(1.32509 1.36532 0)
(1.24497 1.29529 0)
(1.02872 1.04178 0)
(0.724122 0.598956 0)
(0.431298 0.119831 0)
(0.258202 -0.185303 0)
(0.181552 -0.31471 0)
(0.155376 -0.340288 0)
(0.149124 -0.319754 0)
(0.14885 -0.28315 0)
(0.149319 -0.243483 0)
(0.148685 -0.206047 0)
(0.146538 -0.172716 0)
(0.143055 -0.143775 0)
(0.138513 -0.118814 0)
(0.133203 -0.0971885 0)
(0.127428 -0.0782462 0)
(0.121405 -0.0614374 0)
(0.115245 -0.0463452 0)
(0.109017 -0.032673 0)
(0.102794 -0.0202194 0)
(0.0966195 -0.00885196 0)
(0.0904906 0.0015171 0)
(0.0843705 0.0109507 0)
(0.0782253 0.0195041 0)
(0.0720391 0.0272306 0)
(0.0658052 0.0341853 0)
(0.0595102 0.0404252 0)
(0.0531273 0.0460079 0)
(0.0466219 0.0509906 0)
(0.0399617 0.0554244 0)
(0.0331211 0.0593502 0)
(0.0260795 0.0627915 0)
(0.0188665 0.0657475 0)
(0.0116181 0.0681912 0)
(0.00458677 0.0694678 0)
(1.27488 1.16162 0)
(1.30952 1.25031 0)
(1.32843 1.32496 0)
(1.32603 1.37678 0)
(1.30904 1.39767 0)
(1.26591 1.38396 0)
(1.12588 1.21277 0)
(0.87668 0.831923 0)
(0.59025 0.323848 0)
(0.381004 -0.068087 0)
(0.271391 -0.26219 0)
(0.222975 -0.320418 0)
(0.202768 -0.312672 0)
(0.193133 -0.280064 0)
(0.18676 -0.24103 0)
(0.180831 -0.203062 0)
(0.174433 -0.168918 0)
(0.167444 -0.139235 0)
(0.159949 -0.113728 0)
(0.152121 -0.0917594 0)
(0.144173 -0.0726416 0)
(0.136258 -0.0557775 0)
(0.128435 -0.0407066 0)
(0.120737 -0.0270949 0)
(0.113206 -0.0147135 0)
(0.105863 -0.00341373 0)
(0.0986871 0.00689986 0)
(0.0916272 0.0162946 0)
(0.0846349 0.0248277 0)
(0.0776792 0.0325545 0)
(0.0707402 0.0395322 0)
(0.0637936 0.0458187 0)
(0.0568043 0.0514725 0)
(0.0497311 0.0565501 0)
(0.0425356 0.0611023 0)
(0.0351861 0.0651676 0)
(0.0276565 0.0687653 0)
(0.0199749 0.0718864 0)
(0.0122769 0.0744874 0)
(0.00482962 0.075823 0)
(1.21861 1.12976 0)
(1.25468 1.22625 0)
(1.27973 1.31417 0)
(1.2861 1.38195 0)
(1.27781 1.42063 0)
(1.25135 1.43106 0)
(1.17926 1.34606 0)
(0.980167 1.03341 0)
(0.723129 0.535926 0)
(0.500756 0.0747838 0)
(0.365304 -0.187175 0)
(0.295171 -0.285115 0)
(0.259998 -0.295471 0)
(0.24006 -0.269918 0)
(0.226162 -0.233298 0)
(0.214443 -0.195933 0)
(0.203432 -0.161755 0)
(0.192668 -0.1319 0)
(0.182023 -0.106275 0)
(0.17153 -0.0842961 0)
(0.161304 -0.0652684 0)
(0.151418 -0.0485672 0)
(0.141873 -0.0337002 0)
(0.13266 -0.0203043 0)
(0.123787 -0.00812782 0)
(0.115248 0.00299119 0)
(0.107001 0.0131534 0)
(0.0989804 0.0224278 0)
(0.0911234 0.0308713 0)
(0.0833844 0.0385397 0)
(0.0757295 0.0454904 0)
(0.068123 0.0517815 0)
(0.0605207 0.0574712 0)
(0.0528743 0.0626152 0)
(0.045139 0.0672627 0)
(0.0372768 0.0714493 0)
(0.0292558 0.0751892 0)
(0.0211015 0.0784649 0)
(0.0129487 0.0812144 0)
(0.00507908 0.0825919 0)
(1.16693 1.09881 0)
(1.20059 1.20051 0)
(1.22737 1.29864 0)
(1.23969 1.38037 0)
(1.23696 1.43532 0)
(1.22198 1.45836 0)
(1.18291 1.43487 0)
(1.03689 1.19151 0)
(0.818449 0.73149 0)
(0.605815 0.229258 0)
(0.456961 -0.094271 0)
(0.368859 -0.234805 0)
(0.319091 -0.267526 0)
(0.288505 -0.252084 0)
(0.266706 -0.219805 0)
(0.2489 -0.184298 0)
(0.233049 -0.150957 0)
(0.218339 -0.121564 0)
(0.204418 -0.0963012 0)
(0.191172 -0.0746838 0)
(0.178602 -0.0560387 0)
(0.166695 -0.0397367 0)
(0.155394 -0.0252688 0)
(0.144644 -0.0122523 0)
(0.134413 -0.000420059 0)
(0.124665 0.0103985 0)
(0.115337 0.0203078 0)
(0.106347 0.0293753 0)
(0.0976185 0.0376562 0)
(0.0890909 0.0452044 0)
(0.0807172 0.0520759 0)
(0.0724493 0.0583276 0)
(0.0642337 0.0640166 0)
(0.0560147 0.069197 0)
(0.0477408 0.0739153 0)
(0.0393673 0.0782041 0)
(0.0308565 0.0820719 0)
(0.022231 0.0854917 0)
(0.0136236 0.0883827 0)
(0.00533071 0.0897871 0)
(1.12392 1.07176 0)
(1.15093 1.1766 0)
(1.1749 1.2816 0)
(1.18927 1.37462 0)
(1.1902 1.44302 0)
(1.18268 1.47788 0)
(1.15678 1.48815 0)
(1.06657 1.32217 0)
(0.878271 0.899547 0)
(0.688954 0.381081 0)
(0.540549 0.00915277 0)
(0.440573 -0.171862 0)
(0.377958 -0.229093 0)
(0.337127 -0.226337 0)
(0.307435 -0.200288 0)
(0.283481 -0.167934 0)
(0.262726 -0.136344 0)
(0.244015 -0.108088 0)
(0.226778 -0.0837021 0)
(0.210752 -0.0628445 0)
(0.195821 -0.0448956 0)
(0.181884 -0.0292432 0)
(0.168821 -0.0153778 0)
(0.156532 -0.00290955 0)
(0.144947 0.00843493 0)
(0.133996 0.0188309 0)
(0.123593 0.0283821 0)
(0.113638 0.0371535 0)
(0.104042 0.0451961 0)
(0.0947304 0.0525603 0)
(0.0856431 0.0592986 0)
(0.07672 0.0654655 0)
(0.0678979 0.0711158 0)
(0.0591131 0.0763011 0)
(0.0503076 0.0810652 0)