/*--------------------------------*- C++ -*----------------------------------*\
| =========                 |                                                 |
| \\      /  F ield         | OpenFOAM: The Open Source CFD Toolbox           |
|  \\    /   O peration     | Version:  5.0                                   |
|   \\  /    A nd           | Web:      www.OpenFOAM.org                      |
|    \\/     M anipulation  |                                                 |
\*---------------------------------------------------------------------------*/
FoamFile
{
    version     2.0;
    format      ascii;
    class       volScalarField;
    location    "0.6";
    object      epsilon;
}
// * * * * * * * * * * * * * * * * * * * * * * * * * * * * * * * * * * * * * //

dimensions      [0 2 -3 0 0 0 0];

internalField   nonuniform List<scalar> 
1915
(
0.149394
0.157704
0.166904
0.17705
0.188194
0.200384
0.213658
0.228046
0.243565
0.260216
0.277987
0.296851
0.316768
0.337684
0.359538
0.382288
0.405911
0.430423
0.455898
0.482494
0.51048
0.540264
0.572428
0.607739
0.647189
0.436799
0.190925
0.142242
0.12262
0.112378
0.106499
0.103102
0.101312
0.100667
0.100902
0.101861
0.103451
0.105623
0.108353
0.111639
0.115495
0.119947
0.12503
0.130789
0.137273
0.144537
0.152641
0.161645
0.171608
0.182589
0.194642
0.207811
0.222135
0.237638
0.254332
0.272213
0.291266
0.311461
0.332762
0.355126
0.378525
0.402956
0.428456
0.45513
0.483167
0.512877
0.544719
0.57933
0.617561
0.660503
0.428941
0.187275
0.139323
0.119964
0.109839
0.104006
0.100609
0.098785
0.098077
0.0982248
0.099075
0.100538
0.102564
0.105132
0.108244
0.111913
0.116168
0.121046
0.126594
0.132864
0.139914
0.147807
0.156606
0.166378
0.177186
0.189089
0.202141
0.216388
0.231864
0.24859
0.266577
0.285821
0.306308
0.32802
0.350936
0.37505
0.400385
0.42701
0.455065
0.484782
0.516521
0.550798
0.588321
0.630024
0.677092
0.420631
0.183558
0.136417
0.117358
0.107373
0.101604
0.0982229
0.0963786
0.0956213
0.095695
0.0964488
0.0977953
0.0996873
0.102106
0.105052
0.108543
0.112609
0.117288
0.122629
0.128687
0.135524
0.143204
0.151797
0.161373
0.172001
0.183747
0.196674
0.210835
0.226277
0.243033
0.261127
0.280571
0.30137
0.323527
0.347049
0.371957
0.398308
0.426212
0.455853
0.487517
0.521623
0.558756
0.599699
0.645471
0.69735
0.412004
0.179813
0.133544
0.114811
0.104984
0.099293
0.0959396
0.0940868
0.0932916
0.0933024
0.0939713
0.0952128
0.0969817
0.0992604
0.102052
0.105374
0.109258
0.113746
0.118886
0.124738
0.131364
0.138833
0.147219
0.156597
0.167042
0.178627
0.191424
0.205497
0.220903
0.23769
0.255897
0.275556
0.296692
0.319335
0.343524
0.369313
0.396804
0.426154
0.457604
0.491504
0.528343
0.568783
0.61369
0.664166
0.721576
0.403186
0.176076
0.130723
0.112336
0.10268
0.0970758
0.0937592
0.0919066
0.0910827
0.0910399
0.0916335
0.0927799
0.0944357
0.0965845
0.0992306
0.102393
0.106105
0.110409
0.115356
0.121007
0.127427
0.134689
0.14287
0.15205
0.162312
0.173735
0.186401
0.200384
0.215754
0.232575
0.250904
0.270794
0.292295
0.315468
0.340386
0.36715
0.395907
0.426877
0.460366
0.496801
0.536753
0.580969
0.630402
0.686236
0.749908
0.3943
0.172388
0.127977
0.109948
0.100469
0.094958
0.0916839
0.0898377
0.0889917
0.0889028
0.089429
0.0904889
0.0920403
0.0940685
0.0965784
0.0995908
0.103139
0.107267
0.112028
0.117485
0.123705
0.130764
0.138743
0.147728
0.157807
0.169068
0.181602
0.195494
0.21083
0.227689
0.246148
0.266283
0.288176
0.311918
0.337626
0.365449
0.395596
0.428353
0.464106
0.503368
0.546806
0.595261
0.649777
0.711615
0.782265
0.385463
0.168789
0.125331
0.107662
0.098363
0.0929477
0.0897187
0.0878824
0.0870187
0.0868889
0.0873539
0.0883342
0.0897889
0.0917042
0.0940863
0.0969567
0.10035
0.10431
0.108893
0.114162
0.120187
0.127049
0.13483
0.143622
0.153519
0.164618
0.177019
0.19082
0.20612
0.223017
0.24161
0.262001
0.284301
0.308643
0.335189
0.364143
0.395782
0.430471
0.468687
0.511042
0.558308
0.611431
0.671548
0.73999
0.818287
0.376787
0.165318
0.122808
0.105498
0.096376
0.0910547
0.0878706
0.0860451
0.0851658
0.0849985
0.0854066
0.0863125
0.0876766
0.089486
0.0917475
0.0944832
0.0977284
0.101529
0.10594
0.111028
0.116865
0.123533
0.13112
0.139721
0.149436
0.160372
0.172637
0.186343
0.201602
0.218533
0.237255
0.2579
0.280613
0.305568
0.332977
0.363108
0.39631
0.433036
0.473866
0.519524
0.570897
0.629047
0.695205
0.770771
0.85729
0.368374
0.162014
0.120435
0.103474
0.0945226
0.0892907
0.0861484
0.0843321
0.0834372
0.0832336
0.0835875
0.0844228
0.0857009
0.0874097
0.0895566
0.0921643
0.0952683
0.0989152
0.103162
0.108074
0.113727
0.120205
0.1276
0.13601
0.145544
0.156313
0.168436
0.182037
0.197246
0.214197
0.233034
0.253919
0.277031
0.302587
0.330855
0.362169
0.396957
0.435768
0.479293
0.52838
0.584045
0.647472
0.719995
0.803077
0.898266
0.360319
0.158915
0.118237
0.101609
0.0928185
0.0876682
0.0845621
0.0827513
0.0818386
0.0815982
0.0818987
0.0826654
0.0838608
0.0854733
0.0875104
0.0899953
0.0929637
0.0964626
0.100549
0.105291
0.110765
0.117055
0.124259
0.132478
0.141825
0.15242
0.164392
0.177875
0.193014
0.209963
0.228889
0.24998
0.273454
0.299572
0.328657
0.361113
0.397449
0.438317
0.484526
0.537059
0.597072
0.665885
0.744945
0.835777
0.939929
0.352708
0.156055
0.116238
0.0999242
0.09128
0.0862006
0.0831226
0.0813114
0.0803769
0.0800974
0.0803437
0.0810425
0.082157
0.0836758
0.0856067
0.0879729
0.0908102
0.0941655
0.0980968
0.102672
0.107968
0.114072
0.121083
0.129108
0.138263
0.148675
0.16048
0.173826
0.18887
0.205783
0.224755
0.246001
0.269775
0.296382
0.326199
0.359699
0.397475
0.440284
0.489059
0.544925
0.609193
0.683337
0.768935
0.867584
0.980872
0.345619
0.15347
0.114465
0.0984386
0.0899233
0.0849017
0.0818415
0.0800219
0.0790597
0.0787371
0.078927
0.079557
0.080591
0.0820176
0.0838448
0.0860952
0.0888045
0.0920196
0.0957982
0.100208
0.105328
0.111247
0.118063
0.125887
0.134841
0.145056
0.156676
0.169858
0.184772
0.201605
0.220567
0.241899
0.265885
0.292872
0.32329
0.35768
0.396714
0.441252
0.492356
0.551301
0.619573
0.698829
0.790838
0.897109
1.01915
0.339122
0.151193
0.112939
0.0971717
0.0887647
0.0837851
0.0807303
0.0788925
0.0778952
0.077524
0.0776536
0.0782127
0.0791653
0.0805001
0.0822245
0.0843609
0.0869444
0.0900214
0.0936492
0.0978957
0.102839
0.10857
0.115187
0.122804
0.131544
0.141545
0.152957
0.165943
0.180686
0.197384
0.216266
0.237595
0.261681
0.288909
0.319754
0.354819
0.394856
0.440818
0.493896
0.555527
0.627394
0.711375
0.809079
0.922261
1.05247
0.333286
0.149253
0.111685
0.0961421
0.08782
0.0828643
0.0798004
0.0779328
0.0768913
0.0764645
0.0765288
0.0770135
0.0778827
0.0791248
0.0807466
0.0827697
0.0852283
0.0881682
0.0916459
0.0957286
0.100495
0.106033
0.112446
0.119846
0.128359
0.138126
0.149302
0.162057
0.176579
0.193081
0.211802
0.233023
0.257078
0.284378
0.315439
0.350915
0.391632
0.438626
0.493213
0.556998
0.631883
0.719596
0.822062
0.941152
1.07848
0.328175
0.14768
0.110725
0.0953677
0.0871041
0.0821519
0.0790626
0.0771522
0.0760558
0.0755652
0.0755578
0.0759636
0.0767463
0.0778938
0.079412
0.0813215
0.0836554
0.0864582
0.0897853
0.0937031
0.0982889
0.103631
0.109832
0.117004
0.125274
0.134786
0.145696
0.158178
0.172428
0.188664
0.207136
0.228135
0.252011
0.279196
0.310233
0.345816
0.386833
0.434393
0.489926
0.555211
0.63206
0.722413
0.828383
0.951984
1.09494
0.323848
0.146503
0.110078
0.0948655
0.0866312
0.08166
0.0785271
0.076559
0.075396
0.0748319
0.0747456
0.0750668
0.075759
0.0768091
0.0782218
0.0800165
0.0822248
0.0848897
0.0880652
0.091816
0.0962181
0.101359
0.107339
0.114271
0.122282
0.131515
0.142127
0.154296
0.168218
0.184116
0.202245
0.222901
0.246444
0.273313
0.304069
0.339429
0.380322
0.427932
0.483768
0.549631
0.627307
0.718977
0.826896
0.953233
1.09985
0.320359
0.145747
0.109764
0.094651
0.0864144
0.0813995
0.0782031
0.0761611
0.0749181
0.0742701
0.0740963
0.0743266
0.0749233
0.0758724
0.0771771
0.0788551
0.0809363
0.0834618
0.0864837
0.0900648
0.0942792
0.0992126
0.104963
0.111643
0.119377
0.128306
0.138589
0.150402
0.163941
0.179429
0.197122
0.217316
0.240368
0.266722
0.296936
0.331736
0.372066
0.419165
0.474587
0.539967
0.617272
0.708772
0.816851
0.943829
1.09174
0.317751
0.145436
0.109801
0.0947386
0.0864654
0.08138
0.0780985
0.0759649
0.0746276
0.073884
0.0736136
0.0737455
0.0742413
0.0750851
0.0762787
0.0778375
0.0797895
0.0821736
0.0850395
0.0884478
0.09247
0.0971896
0.102702
0.109117
0.116556
0.12516
0.135083
0.146498
0.159601
0.17461
0.191776
0.211392
0.233806
0.259451
0.288874
0.322785
0.362122
0.408132
0.462333
0.526248
0.601929
0.69169
0.797999
0.923311
1.06983
0.316067
0.14559
0.110205
0.0951412
0.0867944
0.0816097
0.0782197
0.0759755
0.0745284
0.0736767
0.0732997
0.0733256
0.0737143
0.0744482
0.0755269
0.0769638
0.0787842
0.0810245
0.0837318
0.086964
0.0907896
0.095289
0.100555
0.106692
0.113821
0.122077
0.13161
0.142591
0.155207
0.169673
0.186232
0.205164
0.226804
0.251566
0.279969
0.312692
0.350638
0.395018
0.447208
0.508734
0.581588
0.668067
0.77067
0.891939
1.03424
0.315343
0.146231
0.110991
0.0958701
0.08741
0.0820948
0.0785714
0.0761964
0.0746231
0.0736501
0.0731561
0.0730676
0.0733427
0.0739618
0.0749219
0.0762337
0.0779199
0.080014
0.0825601
0.0856128
0.0892375
0.0935109
0.0985217
0.104372
0.111176
0.119064
0.128182
0.138693
0.15078
0.164647
0.180525
0.198681
0.219431
0.243158
0.270347
0.301627
0.337835
0.380101
0.429603
0.487926
0.55688
0.638676
0.735769
0.850726
0.986024
0.315614
0.147375
0.112172
0.0969346
0.0883187
0.08284
0.0791565
0.0766291
0.0749124
0.0738044
0.0731824
0.072971
0.0731261
0.0736253
0.0744628
0.0756465
0.0771959
0.0791414
0.0815238
0.0843941
0.087814
0.0918564
0.0966054
0.102158
0.108624
0.116128
0.124809
0.134823
0.146343
0.159563
0.174701
0.192006
0.21177
0.234343
0.260164
0.289799
0.324005
0.363769
0.410111
0.46449
0.52869
0.604655
0.694717
0.801381
0.927155
0.316914
0.149042
0.11376
0.0983427
0.0895253
0.0838474
0.0799755
0.0772732
0.0753951
0.074138
0.073377
0.0730342
0.0730627
0.0734371
0.0741483
0.075201
0.0766114
0.0784062
0.0806227
0.0833082
0.0865202
0.0903272
0.0948089
0.100057
0.106175
0.113281
0.121507
0.131
0.141924
0.15446
0.168811
0.185207
0.203913
0.225244
0.249586
0.277438
0.309457
0.346469
0.38935
0.439358
0.498074
0.567397
0.649309
0.746164
0.86039
0.319278
0.151248
0.115766
0.1001
0.0910321
0.085117
0.0810267
0.0781259
0.0760679
0.0746473
0.0737364
0.0732539
0.0731496
0.0733945
0.0739762
0.0748954
0.0761648
0.0778074
0.0798565
0.0823553
0.0853572
0.0889259
0.093136
0.0980734
0.103836
0.110535
0.118293
0.127249
0.137555
0.14938
0.162911
0.178358
0.195958
0.215988
0.238785
0.264771
0.294502
0.328653
0.367942
0.413406
0.466355
0.528408
0.601518
0.687646
0.788991
0.322741
0.154012
0.118199
0.102211
0.0928392
0.086646
0.0823058
0.0791819
0.0769253
0.0753269
0.0742552
0.0736252
0.0733824
0.0734938
0.0739431
0.074727
0.0758541
0.0773436
0.0792244
0.0815357
0.0843262
0.0876548
0.0915908
0.0962144
0.101617
0.107901
0.115183
0.123591
0.133265
0.144363
0.157054
0.171528
0.187995
0.206698
0.227921
0.252016
0.279435
0.310725
0.346446
0.387415
0.434664
0.489483
0.553444
0.628417
0.716364
0.327342
0.157351
0.121068
0.104678
0.0949443
0.0884294
0.0838056
0.0804334
0.077959
0.0761688
0.0749262
0.0741414
0.0737551
0.0737299
0.0740448
0.0746924
0.0756768
0.077013
0.0787257
0.0808494
0.0834284
0.0865166
0.0901777
0.094486
0.099526
0.105393
0.112195
0.120049
0.129087
0.139449
0.151292
0.164785
0.180113
0.197484
0.217138
0.23936
0.26451
0.293024
0.325318
0.362009
0.40387
0.45187
0.5072
0.57128
0.645743
0.333118
0.161285
0.124382
0.107501
0.0973428
0.090459
0.0855165
0.0818696
0.0791584
0.0771627
0.0757398
0.074794
0.0742603
0.0740963
0.0742759
0.0747871
0.0756294
0.0768132
0.0783588
0.0802962
0.0826648
0.0855135
0.0889006
0.0928943
0.0975724
0.103023
0.109345
0.116646
0.125047
0.134675
0.145672
0.158188
0.172386
0.188443
0.206559
0.226963
0.24993
0.275805
0.304895
0.337634
0.374575
0.416405
0.463974
0.518303
0.580582
0.340107
0.165837
0.128149
0.11068
0.100028
0.092724
0.0874254
0.083477
0.0805101
0.078296
0.0766845
0.0755725
0.0748889
0.0745852
0.0746299
0.0750058
0.0757077
0.0767412
0.0781219
0.0798752
0.0820358
0.0846473
0.0877628
0.0914445
0.0957637
0.100801
0.106647
0.1134
0.121169
0.130072
0.140234
0.151788
0.164878
0.179655
0.196284
0.214945
0.23585
0.25925
0.285398
0.314563
0.347122
0.383535
0.424369
0.470306
0.522154
0.348351
0.171031
0.132381
0.114215
0.102991
0.0952109
0.0895164
0.0852389
0.0819977
0.0795535
0.0777463
0.0764648
0.0756303
0.0751876
0.0750993
0.0753425
0.0759069
0.0767933
0.0780126
0.0795853
0.0815414
0.0839195
0.0867673
0.0901413
0.0941064
0.0987362
0.104113
0.110326
0.117475
0.125666
0.13501
0.145627
0.157641
0.171182
0.186385
0.203395
0.222369
0.243485
0.26695
0.292925
0.321644
0.353395
0.388525
0.427456
0.470685
0.357907
0.176902
0.13709
0.118102
0.106219
0.0979026
0.0917701
0.0871354
0.0836021
0.0809173
0.0789094
0.0774569
0.0764725
0.0758934
0.0756756
0.0757903
0.0762218
0.0769658
0.0780282
0.0794251
0.0811814
0.083331
0.0859164
0.0889884
0.0926059
0.0968358
0.101753
0.107438
0.113981
0.121477
0.130027
0.139736
0.150712
0.163068
0.176915
0.19237
0.20955
0.228581
0.2496
0.272746
0.298128
0.325907
0.356276
0.389464
0.425741
0.368856
0.183494
0.142293
0.12234
0.1097
0.100779
0.0941631
0.0891429
0.0853009
0.0823672
0.0801558
0.0785334
0.0774025
0.0766919
0.0763502
0.0763425
0.0766471
0.0772547
0.0781663
0.0793931
0.0809556
0.0828827
0.0852121
0.0879891
0.091267
0.0951062
0.0995741
0.104745
0.110699
0.117522
0.125303
0.134137
0.144118
0.155343
0.167906
0.181901
0.197418
0.214546
0.233372
0.253984
0.276468
0.300871
0.327282
0.355799
0.386536
0.381334
0.190873
0.148015
0.126927
0.113415
0.103814
0.0966675
0.0912336
0.0870684
0.0838805
0.0814661
0.0796779
0.078407
0.0775723
0.0771149
0.0769926
0.0771783
0.077657
0.078425
0.0794889
0.0808645
0.0825763
0.0846569
0.0871469
0.0900939
0.0935526
0.0975838
0.102255
0.107637
0.113808
0.120849
0.128842
0.137871
0.14802
0.15937
0.171998
0.185973
0.201361
0.218216
0.236586
0.256512
0.278028
0.301136
0.325845
0.352172
0.395574
0.199136
0.154288
0.131858
0.11734
0.106975
0.0992485
0.0933745
0.0888752
0.0854318
0.0828195
0.0808739
0.079473
0.0785252
0.0779626
0.0777362
0.0778126
0.0781716
0.0788047
0.0797139
0.0809106
0.0824149
0.084255
0.0864666
0.0890922
0.092181
0.095788
0.0999735
0.104803
0.110345
0.116672
0.123858
0.131978
0.141104
0.151306
0.16265
0.175192
0.18898
0.20405
0.220426
0.238119
0.257124
0.277424
0.298995
0.321778
0.411983
0.208423
0.161155
0.137124
0.121442
0.110219
0.101862
0.0955254
0.0906869
0.0869935
0.0841944
0.0821057
0.0805898
0.0795435
0.0788898
0.0785723
0.0785512
0.0788013
0.0793095
0.0800732
0.0810999
0.0824055
0.0840138
0.0859561
0.0882701
0.091
0.0941951
0.09791
0.102203
0.107137
0.112776
0.119187
0.126435
0.134586
0.143701
0.153835
0.165037
0.177343
0.190779
0.205356
0.221069
0.237895
0.255796
0.274716
0.29458
0.431256
0.218942
0.168665
0.142704
0.125667
0.113484
0.104448
0.0976354
0.092463
0.0885353
0.0855701
0.08336
0.0817505
0.0806257
0.0798988
0.0795058
0.0794014
0.0795551
0.0799495
0.0805782
0.0814446
0.0825608
0.0839467
0.0856292
0.0876417
0.0900235
0.0928188
0.0960766
0.0998498
0.104194
0.109168
0.114831
0.121242
0.128459
0.136536
0.145522
0.15546
0.166379
0.1783
0.191228
0.205151
0.220039
0.235845
0.252503
0.269928
0.454588
0.231009
0.176875
0.148545
0.129924
0.116673
0.106924
0.0996371
0.0941542
0.0900244
0.0869272
0.0846286
0.0829555
0.0817783
0.0810008
0.0805517
0.0803803
0.0804518
0.0807449
0.0812498
0.0819664
0.0829032
0.0840766
0.0855093
0.0872306
0.089275
0.0916821
0.0944956
0.0977629
0.101534
0.105862
0.110799
0.116399
0.122714
0.129793
0.13768
0.146411
0.156015
0.166509
0.177896
0.190164
0.203283
0.217206
0.231866
0.247178
0.484129
0.245119
0.185839
0.154535
0.134053
0.119634
0.109162
0.101438
0.0956989
0.0914251
0.0882509
0.0859124
0.0842168
0.0830216
0.0822214
0.0817393
0.0815198
0.0815249
0.0817303
0.0821235
0.0827015
0.0834697
0.0844409
0.0856343
0.087075
0.0887931
0.0908233
0.0932044
0.0959785
0.0991904
0.102887
0.107116
0.111925
0.117361
0.123468
0.130286
0.13785
0.146185
0.155308
0.165224
0.175923
0.187379
0.19955
0.212376
0.22578
0.523776
0.262087
0.195572
0.160429
0.137762
0.122111
0.11097
0.102909
0.0970205
0.0927019
0.0895356
0.087227
0.0855647
0.0843952
0.0836068
0.0831184
0.0828722
0.0828282
0.0829606
0.0832549
0.0837061
0.084317
0.0850973
0.0860627
0.0872342
0.0886376
0.0903026
0.0922632
0.094556
0.0972204
0.100298
0.103831
0.107861
0.112431
0.117581
0.123347
0.129761
0.136848
0.144626
0.1531
0.162267
0.172106
0.182586
0.193656
0.20525
0.580381
0.283267
0.205953
0.1657
0.140514
0.123684
0.112062
0.103875
0.0980307
0.0938269
0.0907946
0.0886126
0.0870565
0.0859671
0.085231
0.0847668
0.0845172
0.0844426
0.0845172
0.0847261
0.085063
0.0855288
0.0861305
0.0868805
0.0877956
0.0888973
0.0902104
0.0917633
0.0935873
0.0957161
0.0981852
0.101031
0.104291
0.108002
0.112199
0.116914
0.122178
0.128014
0.13444
0.141466
0.149091
0.157305
0.166084
0.175391
0.185176
0.667597
0.310983
0.216354
0.169179
0.141322
0.12368
0.112035
0.104128
0.0986487
0.0948009
0.0920786
0.0901494
0.0887893
0.0878438
0.0872052
0.0867978
0.0865689
0.0864826
0.0865151
0.0866525
0.0868883
0.0872222
0.087659
0.0882078
0.0888818
0.0896973
0.0906744
0.0918356
0.0932061
0.0948133
0.0966864
0.0988557
0.101352
0.104206
0.107448
0.111106
0.115206
0.11977
0.124816
0.130354
0.136389
0.142917
0.149925
0.157389
0.165274
0.821733
0.348887
0.224173
0.168187
0.138436
0.121128
0.110418
0.103489
0.0988598
0.0956975
0.093507
0.0919795
0.0909152
0.0901808
0.0896855
0.0893669
0.0891822
0.0891021
0.0891079
0.0891879
0.0893368
0.0895535
0.089841
0.0902057
0.0906565
0.0912055
0.0918668
0.092657
0.0935947
0.0947003
0.0959956
0.0975036
0.0992479
0.101252
0.10354
0.106134
0.109054
0.112318
0.115943
0.119938
0.124311
0.129061
0.134184
0.139667
0.14549
1.18409
0.396998
0.219314
0.156817
0.129169
0.114978
0.106914
0.101994
0.0988359
0.0967383
0.0953134
0.0943335
0.093657
0.0931926
0.0928794
0.0926763
0.0925554
0.0924977
0.0924912
0.0925282
0.0926052
0.0927211
0.0928777
0.0930784
0.0933287
0.0936355
0.0940075
0.0944548
0.0949886
0.0956218
0.0963679
0.0972414
0.0982576
0.0994316
0.100779
0.102314
0.10405
0.106
0.108174
0.11058
0.113224
0.116107
0.119228
0.122582
0.12616
3.1434
0.387353
0.169487
0.125758
0.111393
0.105212
0.102055
0.100243
0.0991177
0.0983832
0.0978886
0.0975497
0.097316
0.0971553
0.0970463
0.0969748
0.096931
0.0969084
0.0969026
0.0969112
0.0969327
0.0969667
0.0970137
0.0970749
0.097152
0.0972474
0.097364
0.0975051
0.0976748
0.0978775
0.0981179
0.0984013
0.0987332
0.099119
0.0995643
0.100075
0.100655
0.101309
0.102042
0.102856
0.103753
0.104734
0.105798
0.106943
0.108167
)
;

boundaryField
{
    leftWall
    {
        Cmu             0.09;
        kappa           0.41;
        E               9.8;
        type            epsilonWallFunction;
        value           nonuniform List<scalar> 
42
(
0.436799
0.428941
0.420631
0.412004
0.403186
0.3943
0.385463
0.376787
0.368374
0.360319
0.352708
0.345619
0.339122
0.333286
0.328175
0.323848
0.320359
0.317751
0.316067
0.315343
0.315614
0.316914
0.319278
0.322741
0.327342
0.333118
0.340107
0.348351
0.357907
0.368856
0.381334
0.395574
0.411983
0.431256
0.454588
0.484129
0.523776
0.580381
0.667597
0.821733
1.18409
3.1434
)
;
    }
    rightWall
    {
        Cmu             0.09;
        kappa           0.41;
        E               9.8;
        type            epsilonWallFunction;
        value           nonuniform 0();
    }
    lowerWall
    {
        Cmu             0.09;
        kappa           0.41;
        E               9.8;
        type            epsilonWallFunction;
        value           nonuniform 0();
    }
    atmosphere
    {
        type            inletOutlet;
        inletValue      uniform 0.1;
        value           uniform 0.1;
    }
    defaultFaces
    {
        type            empty;
    }
    procBoundary2to0
    {
        type            processor;
        value           nonuniform List<scalar> 
46
(
0.154479
0.162987
0.172372
0.182687
0.193978
0.206288
0.219648
0.234082
0.2496
0.266194
0.283843
0.302512
0.32216
0.342704
0.364079
0.386232
0.409128
0.432767
0.457202
0.482565
0.509091
0.537154
0.567292
0.600178
0.636722
0.444073
0.194472
0.145159
0.12532
0.114988
0.109085
0.105707
0.103968
0.103401
0.103738
0.104819
0.10655
0.108879
0.11178
0.11525
0.119301
0.123955
0.129248
0.135219
0.141917
0.141917
)
;
    }
    procBoundary2to3
    {
        type            processor;
        value           nonuniform List<scalar> 
43
(
0.692018
0.709505
0.730985
0.756894
0.787556
0.82311
0.863448
0.908147
0.956429
1.00715
1.05888
1.11004
1.15826
1.20093
1.23526
1.25849
1.2681
1.2621
1.23929
1.19953
1.14382
1.07434
0.994335
0.907818
0.819149
0.732466
0.652155
0.580828
0.518786
0.465422
0.419627
0.380133
0.345716
0.3153
0.288016
0.263037
0.239665
0.217286
0.195375
0.173536
0.151626
0.129948
0.109464
)
;
    }
}


// ************************************************************************* //
