/*--------------------------------*- C++ -*----------------------------------*\
| =========                 |                                                 |
| \\      /  F ield         | OpenFOAM: The Open Source CFD Toolbox           |
|  \\    /   O peration     | Version:  5.0                                   |
|   \\  /    A nd           | Web:      www.OpenFOAM.org                      |
|    \\/     M anipulation  |                                                 |
\*---------------------------------------------------------------------------*/
FoamFile
{
    version     2.0;
    format      ascii;
    class       volScalarField;
    location    "0.6";
    object      k;
}
// * * * * * * * * * * * * * * * * * * * * * * * * * * * * * * * * * * * * * //

dimensions      [0 2 -2 0 0 0 0];

internalField   nonuniform List<scalar> 
1915
(
0.137935
0.142569
0.147385
0.152391
0.157592
0.162991
0.168585
0.174369
0.180334
0.186468
0.192757
0.199184
0.205732
0.212384
0.219127
0.225955
0.232875
0.239909
0.2471
0.254515
0.262252
0.270443
0.279261
0.288912
0.29964
0.0228289
0.0444837
0.0559322
0.0639113
0.0702601
0.0756657
0.0804657
0.0848555
0.0889611
0.0928704
0.0966489
0.100348
0.10401
0.10767
0.111359
0.115105
0.118932
0.122864
0.12692
0.13112
0.135479
0.140011
0.14473
0.149644
0.15476
0.160082
0.165608
0.171336
0.177259
0.183368
0.189649
0.196089
0.202675
0.209395
0.216239
0.223205
0.230307
0.237572
0.245049
0.252812
0.26097
0.269663
0.279074
0.289421
0.300962
0.0225541
0.0439776
0.0552823
0.0631507
0.0694033
0.0747197
0.0794335
0.0837378
0.0877568
0.0915777
0.0952655
0.0988712
0.102437
0.105998
0.109586
0.113229
0.116952
0.120779
0.12473
0.128824
0.133079
0.137511
0.142133
0.146954
0.151984
0.157226
0.162684
0.168356
0.174236
0.180319
0.186596
0.193054
0.199686
0.206485
0.213445
0.220572
0.227884
0.235417
0.243227
0.251398
0.260046
0.269323
0.27942
0.290567
0.303028
0.0222618
0.0434476
0.0546105
0.0623723
0.0685339
0.0737669
0.0784006
0.0826255
0.0865644
0.0903032
0.0939063
0.0974245
0.1009
0.104368
0.10786
0.111405
0.115028
0.118753
0.122601
0.126594
0.130748
0.135081
0.139607
0.144337
0.149281
0.154447
0.159837
0.165454
0.171295
0.177357
0.183634
0.190119
0.196808
0.203699
0.210796
0.218109
0.225665
0.233507
0.241702
0.250344
0.259557
0.269505
0.280386
0.292438
0.305927
0.0219563
0.0428993
0.0539224
0.0615814
0.0676565
0.0728111
0.0773702
0.0815214
0.0853857
0.0890483
0.0925726
0.0960091
0.0993996
0.10278
0.106182
0.109633
0.113161
0.11679
0.120541
0.124436
0.128493
0.13273
0.137163
0.141805
0.146668
0.15176
0.157087
0.162653
0.16846
0.174507
0.180793
0.187315
0.194075
0.201077
0.208333
0.215861
0.223697
0.231894
0.240529
0.249706
0.259563
0.270269
0.282033
0.295094
0.309716
0.0216419
0.0423386
0.0532241
0.0607837
0.0667765
0.071857
0.076346
0.0804284
0.0842235
0.087815
0.091266
0.0946264
0.0979377
0.101236
0.104553
0.107917
0.111356
0.114893
0.118551
0.122353
0.126318
0.130465
0.134811
0.139369
0.144155
0.149178
0.154447
0.159969
0.165749
0.17179
0.178094
0.184667
0.191513
0.198645
0.206084
0.213857
0.22201
0.230608
0.239738
0.249519
0.260095
0.271648
0.284389
0.298558
0.314413
0.0213228
0.0417718
0.0525221
0.0599857
0.0658996
0.0709099
0.0753329
0.0793506
0.0830808
0.0866061
0.0899885
0.0932778
0.0965153
0.0997368
0.102974
0.106257
0.109611
0.113062
0.116634
0.120349
0.124228
0.128289
0.132553
0.137034
0.141748
0.146709
0.151927
0.157412
0.163172
0.169216
0.17555
0.182186
0.189135
0.196417
0.204063
0.21211
0.220617
0.229659
0.239339
0.249785
0.261154
0.273635
0.287441
0.302808
0.319982
0.0210031
0.0412053
0.0518235
0.0591942
0.0650324
0.0699758
0.0743361
0.0782928
0.0819619
0.0854248
0.088743
0.0919657
0.095134
0.0982837
0.101447
0.104653
0.107928
0.111299
0.11479
0.118424
0.122222
0.126204
0.130392
0.134802
0.139451
0.144355
0.149529
0.154984
0.160734
0.16679
0.173165
0.179875
0.186941
0.194392
0.202266
0.210615
0.219506
0.229033
0.239308
0.250474
0.2627
0.276179
0.291126
0.307769
0.326333
0.0206867
0.0406457
0.0511355
0.0584166
0.064182
0.0690613
0.0733617
0.0772603
0.0808714
0.0842753
0.0875329
0.0906928
0.0937961
0.0968783
0.0999717
0.103106
0.106308
0.109604
0.113019
0.116577
0.1203
0.12421
0.128327
0.132672
0.137262
0.142117
0.147253
0.152685
0.158431
0.164507
0.170932
0.177728
0.184923
0.192556
0.200675
0.209344
0.218646
0.228686
0.239593
0.251522
0.264653
0.279184
0.295331
0.313308
0.333316
0.0203777
0.0400995
0.0504655
0.0576604
0.063356
0.0681736
0.0724165
0.0762593
0.0798148
0.0831624
0.0863622
0.0894626
0.0925042
0.0955228
0.0985506
0.101617
0.10475
0.107977
0.111321
0.114808
0.118462
0.122304
0.126356
0.130641
0.135179
0.13999
0.145093
0.150509
0.156257
0.162358
0.168839
0.175726
0.183058
0.19088
0.199254
0.208256
0.217981
0.228551
0.24011
0.252826
0.266891
0.282509
0.299891
0.319237
0.340723
0.0200795
0.0395735
0.0498211
0.0569336
0.0625621
0.0673202
0.0715075
0.0752964
0.0787981
0.0820914
0.0852356
0.0882789
0.0912617
0.0942197
0.0971852
0.100188
0.103256
0.106417
0.109695
0.113116
0.116704
0.120483
0.124476
0.128706
0.133196
0.137967
0.143042
0.148444
0.154197
0.160328
0.166866
0.173847
0.181316
0.189328
0.197957
0.20729
0.217438
0.228538
0.240749
0.254255
0.269259
0.285971
0.304597
0.325325
0.348298
0.0197958
0.0390742
0.0492099
0.0562442
0.0618084
0.066509
0.0706422
0.0743784
0.0778278
0.081068
0.0841583
0.0871461
0.0900721
0.0929719
0.0958777
0.0988197
0.101826
0.104924
0.10814
0.111498
0.115025
0.118745
0.122682
0.126861
0.131305
0.136039
0.141088
0.146478
0.152237
0.158395
0.164989
0.172059
0.179659
0.187853
0.196725
0.206376
0.21693
0.228539
0.24138
0.255653
0.271573
0.289357
0.309211
0.331305
0.355763
0.0195295
0.0386081
0.0486396
0.0556002
0.0611029
0.065748
0.0698284
0.0735128
0.0769105
0.0800985
0.0831355
0.0860691
0.0889396
0.0917826
0.0946306
0.0975138
0.100461
0.103499
0.106654
0.109953
0.113422
0.117085
0.120969
0.125098
0.129498
0.134196
0.139219
0.144596
0.150358
0.156539
0.163181
0.17033
0.178046
0.186404
0.195496
0.205435
0.216361
0.228439
0.241864
0.256852
0.273634
0.292441
0.313484
0.336888
0.362741
0.0192839
0.0381815
0.0481175
0.0550095
0.0604539
0.0650451
0.0690736
0.0727068
0.076053
0.079189
0.0821731
0.0850528
0.0878683
0.0906554
0.0934466
0.0962722
0.0991609
0.10214
0.105238
0.108479
0.111891
0.115499
0.11933
0.123411
0.127767
0.132428
0.137423
0.142783
0.148541
0.154737
0.161414
0.168625
0.176437
0.18493
0.194206
0.204391
0.215634
0.228119
0.242055
0.257679
0.275242
0.294991
0.317083
0.341665
0.368807
0.0190618
0.0378005
0.0476509
0.0544799
0.0598692
0.0644083
0.0683856
0.0719677
0.0752623
0.0783458
0.0812767
0.0841021
0.0868626
0.0895938
0.0923284
0.0950968
0.0979279
0.10085
0.103889
0.107074
0.110429
0.113983
0.117761
0.121792
0.126103
0.130724
0.135686
0.141022
0.146768
0.152965
0.159661
0.166913
0.174791
0.183383
0.192797
0.203169
0.214662
0.227469
0.24182
0.257973
0.2762
0.296703
0.319678
0.34527
0.373534
0.0188662
0.0374712
0.047247
0.0540191
0.0593565
0.0638451
0.0677719
0.0713026
0.0745449
0.0775752
0.0804518
0.0832222
0.0859268
0.0886013
0.0912787
0.0939895
0.0967627
0.0996266
0.102608
0.105735
0.109034
0.112532
0.116256
0.120235
0.124498
0.129074
0.133997
0.1393
0.145022
0.151205
0.157899
0.165165
0.173075
0.181721
0.191218
0.201707
0.213365
0.226394
0.241041
0.257587
0.276276
0.297333
0.320975
0.347349
0.37651
0.0186997
0.037199
0.0469125
0.0536341
0.0589233
0.063363
0.0672395
0.0707184
0.0739075
0.0768832
0.0797041
0.0824178
0.085065
0.0876815
0.0903003
0.0929522
0.0956663
0.0984709
0.101393
0.104461
0.107702
0.111142
0.114809
0.118733
0.122942
0.127468
0.132343
0.137603
0.143286
0.149437
0.156106
0.163355
0.171259
0.179911
0.189429
0.199959
0.211683
0.224819
0.239625
0.256376
0.275307
0.296681
0.320725
0.347599
0.377366
0.0185647
0.0369894
0.0466536
0.0533318
0.0585764
0.0629689
0.0667953
0.0702216
0.073356
0.0762754
0.0790386
0.0816936
0.0842812
0.0868376
0.0893958
0.0919867
0.0946396
0.0973829
0.100244
0.103251
0.10643
0.109809
0.113415
0.117279
0.121429
0.125897
0.130715
0.135919
0.141549
0.147648
0.154267
0.161468
0.169325
0.177932
0.187405
0.197893
0.209581
0.222697
0.237505
0.254246
0.273188
0.294609
0.31875
0.34579
0.37581
0.0184634
0.0368472
0.0464763
0.0531186
0.0583225
0.0626692
0.0664455
0.0698183
0.0728963
0.0757572
0.0784603
0.081054
0.0835794
0.0860728
0.0885677
0.0910948
0.0936836
0.0963626
0.0991594
0.102101
0.105215
0.108529
0.112071
0.115869
0.119952
0.124353
0.129104
0.13424
0.1398
0.145827
0.152371
0.159492
0.167262
0.175772
0.185136
0.1955
0.207048
0.22001
0.234642
0.251168
0.269877
0.291055
0.314961
0.341794
0.371661
0.0183976
0.0367766
0.0463858
0.0530001
0.0581673
0.0624698
0.0661959
0.0695138
0.0725335
0.0753334
0.0779735
0.0805028
0.0829628
0.08539
0.0878181
0.090278
0.0927992
0.0954102
0.0981386
0.101012
0.104056
0.1073
0.110771
0.114496
0.118507
0.122832
0.127504
0.132558
0.138032
0.143967
0.150411
0.157421
0.165066
0.173431
0.182625
0.192787
0.204095
0.216775
0.231055
0.24717
0.265403
0.286046
0.309373
0.335605
0.364881
0.0183688
0.0367817
0.046387
0.0529816
0.0581162
0.062376
0.0660517
0.0693133
0.0722723
0.0750083
0.0775824
0.0800438
0.0824346
0.0847919
0.0871492
0.0895378
0.0919872
0.0945258
0.0971813
0.0999806
0.102951
0.106119
0.109512
0.113158
0.117087
0.121326
0.125909
0.130869
0.13624
0.142064
0.148385
0.155256
0.162741
0.170918
0.179887
0.189779
0.200757
0.213036
0.226809
0.242331
0.259863
0.279697
0.302112
0.327351
0.355585
0.0183786
0.0368659
0.0464841
0.0530676
0.0581738
0.0623923
0.0660172
0.0692208
0.0721167
0.0747859
0.0772902
0.07968
0.0819977
0.0842807
0.0865629
0.0888756
0.0912484
0.0937097
0.0962869
0.0990071
0.101897
0.104983
0.108292
0.111851
0.115689
0.119834
0.124316
0.129168
0.134423
0.140118
0.146295
0.153002
0.160297
0.168249
0.176949
0.186513
0.19709
0.208867
0.222014
0.236774
0.253416
0.2722
0.293406
0.317289
0.34405
0.0184282
0.0370322
0.0466806
0.0532618
0.0583439
0.0625226
0.066096
0.06924
0.0720701
0.0746691
0.0771001
0.0794142
0.0816545
0.0838587
0.0860609
0.0882927
0.0905836
0.0929621
0.0954554
0.0980903
0.100893
0.10389
0.107108
0.110572
0.114311
0.118351
0.122722
0.127454
0.132578
0.138129
0.144144
0.150666
0.157746
0.165445
0.173841
0.183035
0.193156
0.204361
0.216799
0.230684
0.246265
0.263812
0.283567
0.305791
0.330702
0.0185187
0.0372832
0.0469798
0.0535676
0.0586296
0.0627696
0.0662911
0.0693735
0.0721351
0.0746605
0.0770144
0.0792487
0.081407
0.0835276
0.0856449
0.0877904
0.0899938
0.0922835
0.0946867
0.0972299
0.099939
0.10284
0.105958
0.109319
0.11295
0.116876
0.121125
0.125725
0.130706
0.136099
0.141936
0.148257
0.155103
0.162528
0.170596
0.179391
0.189022
0.199616
0.211297
0.224246
0.238674
0.254824
0.272961
0.293306
0.316077
0.0186514
0.037621
0.0473839
0.0539872
0.0590333
0.0631357
0.0666044
0.0696232
0.0723134
0.0747619
0.0770348
0.0791849
0.0812568
0.083289
0.0853161
0.0873698
0.08948
0.0916747
0.0939812
0.0964257
0.0990337
0.101831
0.104842
0.108091
0.111605
0.115407
0.119525
0.123983
0.128809
0.134031
0.139678
0.145784
0.152383
0.15952
0.167246
0.175628
0.184753
0.194724
0.205635
0.217633
0.230888
0.245602
0.261999
0.28032
0.300779
0.018827
0.0380475
0.047895
0.0545225
0.0595565
0.0636222
0.0670371
0.0699901
0.0726062
0.0749743
0.0771623
0.0792242
0.0812051
0.0831439
0.0850757
0.0870321
0.089043
0.0911365
0.0933395
0.0956782
0.0981777
0.100863
0.103758
0.106887
0.110275
0.113945
0.11792
0.122226
0.126887
0.131928
0.137375
0.143255
0.149598
0.156438
0.163816
0.171783
0.180404
0.189761
0.19992
0.210992
0.223108
0.236424
0.251119
0.267385
0.285422
0.0190465
0.0385642
0.0485145
0.0551748
0.0602
0.0642296
0.0675897
0.0704747
0.0730135
0.075298
0.0773973
0.0793669
0.0812524
0.0830933
0.0849246
0.0867783
0.0886841
0.09067
0.0927628
0.0949883
0.0973716
0.0999369
0.102708
0.105708
0.10896
0.112488
0.116312
0.120456
0.124943
0.129793
0.13503
0.140677
0.146757
0.153297
0.160328
0.167885
0.176017
0.184783
0.19423
0.204432
0.215484
0.227498
0.240606
0.254955
0.270701
0.0193105
0.0391724
0.0492438
0.0559449
0.0609644
0.0649581
0.0682617
0.0710764
0.0735351
0.0757324
0.0777396
0.079613
0.081399
0.0831375
0.0848637
0.0866094
0.0884044
0.0902765
0.0922524
0.0943577
0.0966169
0.0990541
0.101692
0.104554
0.107662
0.111037
0.114701
0.118674
0.122976
0.127627
0.132647
0.138054
0.143868
0.150108
0.156795
0.163955
0.171619
0.179826
0.188613
0.198019
0.208106
0.218949
0.230637
0.243272
0.256965
0.0196197
0.0398737
0.0500843
0.0568337
0.0618499
0.0658071
0.0690525
0.0717941
0.0741695
0.0762765
0.0781881
0.0799617
0.0816446
0.0832767
0.0848933
0.0865264
0.0882053
0.0899578
0.0918104
0.0937883
0.0959159
0.0982167
0.100713
0.103428
0.106382
0.109595
0.113088
0.11688
0.120989
0.125433
0.130228
0.13539
0.140933
0.146874
0.153224
0.160001
0.167222
0.174909
0.18309
0.19178
0.201012
0.210829
0.221285
0.23244
0.244366
0.0199751
0.0406702
0.0510378
0.0578425
0.0628568
0.0667764
0.069961
0.0726264
0.0749154
0.0769287
0.0787415
0.0804121
0.0819885
0.0835107
0.085014
0.0865301
0.0880883
0.089716
0.0914393
0.0932832
0.0952718
0.0974281
0.0997746
0.102333
0.105123
0.108164
0.111477
0.115078
0.118984
0.123211
0.127773
0.132684
0.137954
0.143595
0.149615
0.156022
0.162824
0.170031
0.177655
0.185707
0.194192
0.203126
0.212534
0.222447
0.232899
0.0203783
0.0415653
0.0521079
0.0589737
0.0639864
0.0678661
0.0709864
0.073572
0.075771
0.0776873
0.0793981
0.0809629
0.0824298
0.0838392
0.0852261
0.0866219
0.0880554
0.0895537
0.0911424
0.0928463
0.0946889
0.0966931
0.0988807
0.101273
0.103889
0.106749
0.10987
0.113269
0.116962
0.120962
0.125283
0.129936
0.134929
0.140269
0.145961
0.152009
0.158414
0.165175
0.172294
0.179769
0.187601
0.19578
0.204311
0.213197
0.222449
0.0208331
0.0425653
0.0533007
0.060232
0.0652417
0.0690776
0.0721291
0.0746303
0.0767351
0.0785509
0.0801567
0.0816129
0.082968
0.0842623
0.0855304
0.0868032
0.088109
0.0894743
0.0909242
0.0924828
0.0941733
0.096018
0.0980385
0.100255
0.102688
0.105355
0.108273
0.111459
0.114927
0.11869
0.12276
0.127145
0.131853
0.136889
0.142255
0.14795
0.153971
0.160313
0.166967
0.173924
0.181174
0.188704
0.196498
0.204542
0.212825
0.021346
0.0436812
0.0546267
0.0616259
0.0666289
0.070415
0.0733913
0.0758024
0.0778081
0.0795193
0.0810168
0.082362
0.0836033
0.0847808
0.0859286
0.0870768
0.0882529
0.0894827
0.0907904
0.0921995
0.0937326
0.0954116
0.0972575
0.0992903
0.101529
0.103993
0.106697
0.109657
0.112887
0.1164
0.120205
0.124312
0.128725
0.133449
0.138483
0.143826
0.149471
0.155409
0.161627
0.16811
0.174841
0.181798
0.18896
0.196305
0.203806
0.0219296
0.0449318
0.056104
0.0631707
0.0681598
0.0718869
0.0747792
0.0770925
0.0789928
0.0805946
0.0819804
0.0832119
0.0843378
0.0853974
0.086424
0.0874469
0.0884925
0.0895854
0.090749
0.0920058
0.0933776
0.0948855
0.09655
0.0983908
0.100427
0.102675
0.105152
0.107873
0.110852
0.1141
0.117626
0.121439
0.125544
0.129943
0.134637
0.13962
0.144886
0.150425
0.156221
0.162257
0.16851
0.174955
0.181565
0.18831
0.195159
0.0226054
0.046349
0.0577633
0.0648922
0.069855
0.0735096
0.0763052
0.07851
0.0802967
0.0817829
0.0830525
0.0841677
0.0851765
0.0861176
0.087023
0.0879207
0.088836
0.0897921
0.0908111
0.0919142
0.0931222
0.0944552
0.095933
0.0975745
0.0993981
0.101421
0.103659
0.106127
0.108839
0.111805
0.115035
0.118537
0.122315
0.126372
0.130707
0.135317
0.140194
0.145326
0.150699
0.156294
0.162087
0.168053
0.17416
0.180376
0.186666
0.0234108
0.0479878
0.0596569
0.0668348
0.0717505
0.0753112
0.0779915
0.0800726
0.0817339
0.083096
0.0842437
0.085239
0.086129
0.086951
0.0877357
0.0885096
0.089296
0.0901166
0.090992
0.0919417
0.0929851
0.0941412
0.0954286
0.0968654
0.0984691
0.100257
0.102243
0.104444
0.106872
0.109538
0.112452
0.115621
0.11905
0.122741
0.126696
0.130909
0.135374
0.140081
0.145015
0.150159
0.155489
0.160979
0.166601
0.17232
0.178101
0.0244122
0.0499439
0.0618735
0.0690724
0.073905
0.0773377
0.079874
0.0818087
0.0833277
0.0845536
0.0855714
0.086442
0.0872109
0.0879135
0.0885786
0.0892305
0.0898906
0.0905786
0.0913129
0.0921114
0.0929915
0.0939707
0.095066
0.0962945
0.0976726
0.0992164
0.100941
0.102861
0.104988
0.107335
0.10991
0.112722
0.115775
0.119072
0.122615
0.1264
0.130422
0.134671
0.139136
0.143799
0.148641
0.153637
0.158759
0.163977
0.169257
0.0257266
0.0523847
0.0645635
0.0717255
0.0764105
0.0796584
0.0820052
0.0837594
0.0851115
0.0861844
0.0870613
0.0878008
0.0884456
0.0890284
0.0895754
0.0901082
0.0906457
0.0912052
0.0918028
0.092454
0.0931743
0.0939788
0.094883
0.0959022
0.0970514
0.0983457
0.0997993
0.101426
0.103237
0.105245
0.107459
0.109887
0.112534
0.115404
0.118498
0.121816
0.125352
0.129099
0.133048
0.137185
0.141492
0.145948
0.15053
0.155209
0.159956
0.0275493
0.0556042
0.0679764
0.0749796
0.0793986
0.0823661
0.0844524
0.0859761
0.0871271
0.0880246
0.0887469
0.0893476
0.0898651
0.0903281
0.0907591
0.0911767
0.0915966
0.0920332
0.0925001
0.09301
0.0935759
0.0942107
0.0949274
0.0957394
0.0966597
0.0977018
0.0988786
0.100202
0.101685
0.103337
0.105168
0.107185
0.109394
0.111801
0.114406
0.117209
0.120209
0.1234
0.126774
0.130321
0.134026
0.137874
0.141844
0.145914
0.15006
0.0302495
0.0601311
0.0725095
0.0790923
0.0830286
0.0855609
0.0872834
0.0885098
0.0894178
0.0901145
0.0906676
0.0911223
0.0915102
0.0918545
0.0921732
0.0924807
0.0927894
0.0931104
0.0934543
0.0938309
0.0942504
0.0947229
0.095259
0.0958692
0.0965645
0.097356
0.0982546
0.0992712
0.100416
0.101699
0.103128
0.10471
0.106453
0.10836
0.110434
0.112675
0.115083
0.117655
0.120385
0.123265
0.126286
0.129436
0.1327
0.136061
0.1395
0.0347579
0.066957
0.0787356
0.0843383
0.0874223
0.0892995
0.0905318
0.0913894
0.092015
0.09249
0.0928642
0.09317
0.0934298
0.0936596
0.0938719
0.0940767
0.0942826
0.0944971
0.0947275
0.0949808
0.0952641
0.0955846
0.0959498
0.0963676
0.096846
0.0973935
0.0980184
0.0987292
0.099534
0.100441
0.101457
0.102588
0.10384
0.105216
0.106721
0.108354
0.110117
0.112007
0.114022
0.116155
0.118402
0.120753
0.1232
0.12573
0.128332
0.0443867
0.0780025
0.0872158
0.0907541
0.0924918
0.0934968
0.094145
0.0945951
0.0949248
0.0951767
0.0953764
0.0955405
0.0956808
0.0958056
0.0959215
0.0960339
0.0961475
0.0962665
0.096395
0.0965369
0.0966964
0.0968777
0.0970852
0.0973237
0.0975981
0.0979136
0.0982757
0.0986896
0.0991608
0.0996945
0.100296
0.100969
0.101718
0.102545
0.103454
0.104446
0.10552
0.106677
0.107914
0.109229
0.110618
0.112077
0.113599
0.115179
0.11681
0.0852522
0.0961072
0.0970872
0.0974417
0.0976673
0.0978309
0.0979559
0.0980536
0.0981314
0.0981944
0.0982468
0.0982914
0.0983307
0.0983665
0.0984006
0.0984342
0.0984687
0.0985052
0.098545
0.0985893
0.0986394
0.0986966
0.0987625
0.0988386
0.0989265
0.0990281
0.0991452
0.0992798
0.0994339
0.0996093
0.0998081
0.100032
0.100282
0.10056
0.100867
0.101204
0.10157
0.101966
0.102391
0.102844
0.103323
0.103827
0.104353
0.1049
0.105465
)
;

boundaryField
{
    leftWall
    {
        type            kqRWallFunction;
        value           nonuniform List<scalar> 
42
(
0.0228289
0.0225541
0.0222618
0.0219563
0.0216419
0.0213228
0.0210031
0.0206867
0.0203777
0.0200795
0.0197958
0.0195295
0.0192839
0.0190618
0.0188662
0.0186997
0.0185647
0.0184634
0.0183976
0.0183688
0.0183786
0.0184282
0.0185187
0.0186514
0.018827
0.0190465
0.0193105
0.0196197
0.0199751
0.0203783
0.0208331
0.021346
0.0219296
0.0226054
0.0234108
0.0244122
0.0257266
0.0275493
0.0302495
0.0347579
0.0443867
0.0852522
)
;
    }
    rightWall
    {
        type            kqRWallFunction;
        value           nonuniform 0();
    }
    lowerWall
    {
        type            kqRWallFunction;
        value           nonuniform 0();
    }
    atmosphere
    {
        type            inletOutlet;
        inletValue      uniform 0.1;
        value           uniform 0.1;
    }
    defaultFaces
    {
        type            empty;
    }
    procBoundary2to0
    {
        type            processor;
        value           nonuniform List<scalar> 
46
(
0.140435
0.145168
0.150078
0.155173
0.160456
0.165927
0.171585
0.177421
0.183425
0.189584
0.195879
0.202293
0.208808
0.2154
0.222053
0.228759
0.235521
0.242358
0.249305
0.256422
0.263801
0.271566
0.279881
0.288935
0.298961
0.0230818
0.0449607
0.056555
0.0646497
0.0711007
0.0766019
0.0814947
0.0859768
0.0901756
0.0941798
0.0980554
0.101854
0.105617
0.109381
0.113175
0.117028
0.120963
0.125002
0.129166
0.133472
0.133472
)
;
    }
    procBoundary2to3
    {
        type            processor;
        value           nonuniform List<scalar> 
43
(
0.311724
0.313979
0.317089
0.321139
0.326179
0.332215
0.339199
0.347025
0.355526
0.364476
0.3736
0.3826
0.391045
0.398478
0.40442
0.408396
0.409967
0.408767
0.404551
0.397227
0.386885
0.373805
0.358455
0.341456
0.323534
0.305434
0.287999
0.27183
0.257137
0.243932
0.232077
0.221338
0.211436
0.202078
0.192993
0.183905
0.174561
0.164737
0.154253
0.142997
0.130992
0.118484
0.106044
)
;
    }
}


// ************************************************************************* //
