/*--------------------------------*- C++ -*----------------------------------*\
| =========                 |                                                 |
| \\      /  F ield         | OpenFOAM: The Open Source CFD Toolbox           |
|  \\    /   O peration     | Version:  5.0                                   |
|   \\  /    A nd           | Web:      www.OpenFOAM.org                      |
|    \\/     M anipulation  |                                                 |
\*---------------------------------------------------------------------------*/
FoamFile
{
    version     2.0;
    format      ascii;
    class       volScalarField;
    location    "0.6";
    object      nut;
}
// * * * * * * * * * * * * * * * * * * * * * * * * * * * * * * * * * * * * * //

dimensions      [0 2 -1 0 0 0 0];

internalField   nonuniform List<scalar> 
1915
(
0.0114619
0.0115998
0.0117133
0.011805
0.011877
0.0119318
0.0119718
0.0119993
0.0120166
0.0120259
0.0120292
0.0120285
0.0120255
0.012022
0.0120195
0.0120197
0.0120242
0.0120349
0.0120537
0.0120831
0.0121255
0.0121839
0.0122614
0.0123611
0.0124857
0.000107381
0.000932787
0.00197942
0.00299802
0.00395349
0.00483835
0.00565195
0.00639649
0.00707549
0.00769304
0.00825334
0.00876041
0.00921792
0.00962919
0.00999716
0.0103244
0.0106134
0.0108662
0.0110849
0.0112718
0.0114289
0.0115584
0.0116627
0.0117443
0.0118056
0.0118492
0.0118778
0.0118939
0.0118999
0.0118984
0.0118914
0.0118812
0.0118697
0.0118588
0.0118502
0.0118456
0.0118468
0.0118557
0.0118744
0.0119054
0.0119512
0.0120147
0.0120992
0.0122074
0.0123421
0.000106732
0.00092945
0.00197421
0.0029919
0.00394681
0.00483119
0.00564434
0.00638843
0.00706703
0.00768424
0.00824423
0.00875092
0.00920791
0.00961837
0.00998507
0.0103105
0.0105968
0.0108461
0.0110603
0.0112416
0.0113921
0.011514
0.0116097
0.0116818
0.0117329
0.0117659
0.0117836
0.0117886
0.0117839
0.0117718
0.011755
0.0117357
0.011716
0.0116982
0.0116838
0.0116749
0.0116733
0.011681
0.0117002
0.0117333
0.011783
0.0118521
0.0119438
0.0120609
0.0122056
0.000106038
0.000925549
0.00196755
0.00298341
0.00393693
0.00482008
0.00563208
0.00637515
0.00705288
0.00766937
0.00822877
0.00873496
0.00919141
0.00960115
0.00996683
0.0102907
0.0105749
0.0108212
0.0110317
0.0112081
0.0113527
0.0114677
0.0115555
0.0116189
0.0116606
0.0116837
0.011691
0.0116857
0.0116706
0.0116486
0.0116224
0.0115945
0.0115672
0.0115428
0.0115233
0.0115106
0.0115067
0.0115138
0.011534
0.0115698
0.0116239
0.0116991
0.0117984
0.0119243
0.0120789
0.000105308
0.000921134
0.00195955
0.00297275
0.00392408
0.00480529
0.00561554
0.00635707
0.00703348
0.00764893
0.00820753
0.00871309
0.00916901
0.00957818
0.00994309
0.0102659
0.0105484
0.0107924
0.0109997
0.0111721
0.0113117
0.0114206
0.0115015
0.011557
0.0115901
0.011604
0.0116018
0.0115868
0.0115621
0.0115308
0.0114958
0.0114599
0.0114255
0.0113952
0.0113711
0.0113552
0.0113497
0.0113567
0.0113785
0.0114176
0.0114765
0.0115582
0.0116652
0.0118001
0.0119643
0.000104551
0.000916254
0.00195033
0.00296004
0.00390845
0.00478708
0.00559502
0.00633453
0.00700927
0.00762339
0.008181
0.00868586
0.00914127
0.00955002
0.00991444
0.0102365
0.0105179
0.0107603
0.0109652
0.0111343
0.0112698
0.0113737
0.0114485
0.0114971
0.0115226
0.0115283
0.0115174
0.0114935
0.01146
0.0114202
0.0113772
0.0113339
0.0112932
0.0112576
0.0112295
0.0112111
0.0112045
0.0112121
0.0112361
0.0112789
0.0113431
0.0114315
0.0115465
0.0116903
0.0118641
0.000103778
0.000910965
0.00193997
0.00294546
0.00389025
0.00476568
0.00557081
0.0063079
0.00698063
0.00759318
0.00814964
0.00865374
0.0091087
0.0095172
0.00988142
0.0102032
0.010484
0.0107253
0.0109286
0.0110955
0.0112277
0.0113276
0.0113974
0.0114403
0.0114592
0.0114576
0.011439
0.0114073
0.0113659
0.0113183
0.0112681
0.0112183
0.0111719
0.0111317
0.0111003
0.01108
0.011073
0.0110818
0.0111084
0.0111555
0.0112254
0.0113208
0.0114439
0.0115967
0.0117798
0.000102997
0.000905325
0.00192858
0.00292913
0.00386964
0.00474132
0.00554318
0.00627746
0.0069479
0.00755868
0.00811388
0.00861719
0.00907176
0.00948016
0.00984447
0.0101663
0.0104471
0.0106881
0.0108906
0.011056
0.0111861
0.0112829
0.0113489
0.011387
0.0114005
0.0113928
0.0113677
0.0113291
0.0112807
0.0112264
0.0111698
0.0111143
0.0110631
0.011019
0.010985
0.0109634
0.0109567
0.0109671
0.010997
0.0110487
0.0111247
0.0112273
0.0113587
0.0115204
0.0117127
0.000102219
0.000899395
0.00191628
0.00291119
0.00384681
0.00471421
0.00551236
0.00624352
0.00691142
0.00752025
0.00807409
0.00857659
0.00903084
0.00943932
0.00980399
0.0101264
0.0104077
0.010649
0.0108514
0.0110163
0.0111452
0.0112401
0.0113034
0.011338
0.0113472
0.0113346
0.0113041
0.0112597
0.0112054
0.0111454
0.0110834
0.011023
0.0109677
0.0109206
0.0108847
0.0108625
0.0108566
0.0108692
0.0109027
0.0109595
0.0110417
0.0111517
0.0112914
0.011462
0.0116634
0.000101453
0.00089324
0.00190317
0.0028918
0.00382192
0.00468455
0.0054786
0.00620633
0.00687148
0.00747822
0.00803061
0.00853229
0.00898628
0.009395
0.0097603
0.0100836
0.0103659
0.0106082
0.0108114
0.0109766
0.0111054
0.0111995
0.0112613
0.0112936
0.0112997
0.0112834
0.0112487
0.0111997
0.0111407
0.0110759
0.0110095
0.0109451
0.0108866
0.0108371
0.0107999
0.0107777
0.010773
0.0107883
0.0108258
0.0108878
0.0109765
0.011094
0.0112419
0.0114212
0.0116316
0.000100708
0.000886928
0.00188937
0.00287109
0.00379516
0.00465255
0.00544214
0.00616617
0.00682836
0.00743288
0.00798377
0.00848461
0.00893841
0.0093475
0.00971366
0.0100382
0.010322
0.0105658
0.0107705
0.010937
0.0110666
0.011161
0.0112225
0.0112538
0.0112582
0.0112395
0.0112018
0.0111494
0.0110868
0.0110184
0.0109484
0.010881
0.01082
0.0107689
0.010731
0.0107092
0.0107062
0.0107243
0.010766
0.0108333
0.0109284
0.0110532
0.0112091
0.0113969
0.0116158
9.99933e-05
0.000880532
0.00187499
0.00284923
0.0037667
0.00461841
0.00540321
0.0061233
0.00678236
0.00738454
0.00793385
0.00843385
0.00888749
0.00929707
0.00966429
0.00999034
0.010276
0.010522
0.010729
0.0108976
0.011029
0.0111248
0.0111872
0.0112187
0.0112227
0.0112029
0.0111635
0.011109
0.0110439
0.0109728
0.0109004
0.0108308
0.010768
0.0107159
0.0106777
0.0106566
0.0106554
0.0106765
0.0107222
0.0107947
0.0108958
0.0110275
0.0111908
0.0113864
0.0116132
9.93181e-05
0.000874128
0.00186016
0.00282637
0.00373675
0.00458238
0.00536207
0.00607799
0.00673377
0.0073335
0.00788116
0.00838028
0.00883378
0.00924393
0.00961236
0.00994021
0.0102282
0.0104769
0.0106866
0.0108582
0.0109924
0.0110907
0.0111551
0.0111882
0.011193
0.0111735
0.0111337
0.0110782
0.0110118
0.0109393
0.0108652
0.0107942
0.0107304
0.0106776
0.0106396
0.0106194
0.0106199
0.0106438
0.0106931
0.0107701
0.0108765
0.0110141
0.0111837
0.0113859
0.0116197
9.86905e-05
0.000867796
0.00184503
0.00280271
0.00370553
0.0045447
0.005319
0.00603055
0.0066829
0.00728007
0.00782601
0.0083242
0.00877754
0.00918828
0.00955803
0.00988787
0.0101785
0.0104302
0.0106434
0.0108186
0.0109566
0.0110584
0.011126
0.0111618
0.0111689
0.0111509
0.011112
0.0110569
0.0109904
0.0109174
0.0108426
0.0107709
0.0107066
0.0106536
0.0106158
0.0105964
0.0105984
0.0106244
0.0106767
0.0107571
0.0108676
0.0110093
0.011184
0.0113917
0.0116314
9.81193e-05
0.000861621
0.00182974
0.00277845
0.0036733
0.00450566
0.00527433
0.00598132
0.0066301
0.00722461
0.00776872
0.00826589
0.00871901
0.00913032
0.00950143
0.00983338
0.0101268
0.010382
0.0105992
0.0107787
0.0109212
0.0110276
0.0110995
0.0111393
0.0111498
0.0111347
0.0110981
0.0110446
0.0109791
0.0109066
0.0108321
0.0107603
0.0106959
0.010643
0.0106054
0.0105865
0.0105894
0.0106168
0.0106707
0.0107532
0.0108656
0.0110102
0.0111883
0.0113998
0.0116437
9.76126e-05
0.000855685
0.00181446
0.00275382
0.00364033
0.0044656
0.00522842
0.00593069
0.00657576
0.00716749
0.00770966
0.0082057
0.00865849
0.00907027
0.00944268
0.00977678
0.0100731
0.0103321
0.0105536
0.0107381
0.0108858
0.0109977
0.011075
0.01112
0.0111353
0.0111244
0.0110914
0.0110407
0.0109774
0.0109065
0.0108329
0.0107618
0.0106977
0.0106449
0.0106074
0.0105887
0.0105916
0.0106191
0.0106732
0.0107556
0.0108685
0.011014
0.0111932
0.0114063
0.0116522
9.71786e-05
0.000850077
0.00179937
0.00272908
0.00360696
0.00442491
0.00518169
0.0058791
0.00652035
0.00710916
0.00764924
0.00814398
0.00859627
0.00900837
0.00938195
0.00971812
0.0100175
0.0102802
0.0105065
0.0106963
0.01085
0.0109681
0.0110519
0.0111032
0.0111245
0.0111191
0.0110909
0.0110444
0.0109845
0.0109161
0.0108444
0.0107745
0.0107111
0.0106585
0.0106209
0.0106017
0.0106038
0.01063
0.0106824
0.0107629
0.0108742
0.0110181
0.0111959
0.0114078
0.0116529
9.68242e-05
0.000844883
0.00178465
0.00270452
0.00357357
0.00438402
0.00513464
0.00582708
0.00646438
0.00705013
0.00758795
0.00808119
0.00853272
0.00894489
0.00931941
0.00965746
0.00995968
0.0102263
0.0104575
0.010653
0.0108131
0.0109383
0.0110293
0.011088
0.0111165
0.0111179
0.0110959
0.0110548
0.0109994
0.0109346
0.0108657
0.0107976
0.0107352
0.0106829
0.0106449
0.0106246
0.010625
0.0106484
0.0106972
0.0107741
0.0108815
0.0110212
0.0111944
0.0114018
0.0116428
9.65559e-05
0.000840192
0.00177051
0.00268045
0.00354056
0.00434343
0.00508781
0.0057752
0.00640846
0.006991
0.00752635
0.00801781
0.00846828
0.00888016
0.00925528
0.0095949
0.00989975
0.0101701
0.0104061
0.0106076
0.0107746
0.0109073
0.0110065
0.0110735
0.0111103
0.0111197
0.0111051
0.0110707
0.011021
0.010961
0.0108956
0.0108301
0.0107691
0.0107173
0.0106786
0.0106567
0.0106544
0.010674
0.0107176
0.010789
0.01089
0.0110225
0.011188
0.0113874
0.0116204
9.63792e-05
0.000836091
0.00175716
0.00265722
0.00350839
0.00430369
0.00504184
0.00572416
0.00635328
0.00693245
0.00746508
0.00795443
0.00840345
0.0088146
0.00918985
0.00953058
0.00983767
0.0101115
0.0103522
0.0105596
0.0107336
0.0108743
0.0109822
0.0110584
0.0111046
0.0111232
0.0111173
0.0110908
0.0110481
0.010994
0.0109332
0.010871
0.010812
0.0107607
0.0107214
0.0106975
0.0106917
0.0107064
0.010744
0.0108079
0.0109003
0.0110229
0.0111774
0.0113649
0.0115857
9.62987e-05
0.000832661
0.0017448
0.00263518
0.00347757
0.00426542
0.00499742
0.00567468
0.0062996
0.00687524
0.00740488
0.00789175
0.00833883
0.0087487
0.00912348
0.00946473
0.00977347
0.0100503
0.0102953
0.0105084
0.0106894
0.0108384
0.0109556
0.0110417
0.0110981
0.0111269
0.0111309
0.0111137
0.0110793
0.0110321
0.0109771
0.010919
0.0108627
0.0108125
0.0107726
0.0107465
0.0107369
0.010746
0.0107769
0.0108319
0.0109137
0.011024
0.0111644
0.0113365
0.0115409
9.63185e-05
0.00082998
0.00173366
0.0026147
0.00344861
0.00422927
0.0049553
0.00562759
0.00624829
0.00682024
0.00734658
0.00783053
0.00827511
0.00868305
0.00905663
0.00939763
0.0097073
0.00998636
0.0102351
0.0104535
0.0106414
0.0107987
0.0109253
0.0110218
0.0110892
0.0111292
0.0111443
0.0111375
0.0111126
0.0110738
0.0110257
0.0109729
0.0109201
0.0108717
0.0108316
0.0108035
0.01079
0.0107933
0.0108169
0.0108626
0.0109323
0.0110284
0.0111525
0.0113061
0.0114904
9.64417e-05
0.000828119
0.00172395
0.00259617
0.00342206
0.00419591
0.00491627
0.00558377
0.00620026
0.00676837
0.0072911
0.00777164
0.0082131
0.00861834
0.00898987
0.00932971
0.00963937
0.00991982
0.0101715
0.0103946
0.0105889
0.0107541
0.0108902
0.0109973
0.0110763
0.0111283
0.0111554
0.0111603
0.0111462
0.0111172
0.0110773
0.011031
0.0109828
0.010937
0.0108975
0.0108679
0.0108507
0.0108486
0.0108647
0.0109008
0.0109586
0.0110393
0.0111456
0.0112787
0.0114398
9.66711e-05
0.000827136
0.00171586
0.00257995
0.00339846
0.00416606
0.00488118
0.00554414
0.0061565
0.00672064
0.00723944
0.00771606
0.00815369
0.00855538
0.00892387
0.0092615
0.00957004
0.00985077
0.0101044
0.0103312
0.0105311
0.0107038
0.0108491
0.0109669
0.0110577
0.0111223
0.0111623
0.0111799
0.0111779
0.0111599
0.0111296
0.0110912
0.011049
0.0110071
0.0109692
0.0109389
0.0109189
0.0109118
0.0109207
0.0109475
0.0109935
0.01106
0.0111479
0.0112595
0.0113961
9.70084e-05
0.000827081
0.00170958
0.00256641
0.00337836
0.00414042
0.00485085
0.00550965
0.00611802
0.00667811
0.00719266
0.00766481
0.00809786
0.00849506
0.00885945
0.00919364
0.0094998
0.00977952
0.0100338
0.0102631
0.0104676
0.0106469
0.0108008
0.0109291
0.0110317
0.0111092
0.0111627
0.0111939
0.0112051
0.0111995
0.0111802
0.0111513
0.0111165
0.0110799
0.0110451
0.0110154
0.0109937
0.0109826
0.0109851
0.0110031
0.011038
0.011091
0.0111627
0.0112539
0.0113659
9.74551e-05
0.000827988
0.00170527
0.00255588
0.00336226
0.00411968
0.00482614
0.00548125
0.00608588
0.00664187
0.00715186
0.00761899
0.00804667
0.0084384
0.00879749
0.00912694
0.00942929
0.00970651
0.00995995
0.0101904
0.0103981
0.0105829
0.0107445
0.0108825
0.0109966
0.011087
0.0111544
0.0111998
0.0112253
0.0112331
0.0112264
0.0112084
0.0111827
0.0111531
0.0111229
0.0110955
0.0110737
0.0110599
0.0110573
0.0110676
0.0110925
0.011133
0.0111898
0.0112633
0.0113542
9.80114e-05
0.00082988
0.00170306
0.00254866
0.00335067
0.00410452
0.00480788
0.00545992
0.00606111
0.00661304
0.0071182
0.00757975
0.00800125
0.00838645
0.008739
0.0090623
0.00935929
0.00963238
0.00988331
0.0101132
0.0103225
0.0105114
0.0106794
0.0108261
0.010951
0.0110539
0.0111351
0.0111952
0.0112355
0.0112579
0.0112649
0.0112594
0.0112445
0.0112236
0.0111999
0.0111767
0.0111566
0.0111421
0.0111359
0.0111402
0.0111566
0.0111862
0.0112295
0.0112872
0.0113595
9.86771e-05
0.000832766
0.00170306
0.00254503
0.00334406
0.00409559
0.00479688
0.00544661
0.00604479
0.00659274
0.00709283
0.00754825
0.00796275
0.00834035
0.00868507
0.00900073
0.00929073
0.00955793
0.00980449
0.0100319
0.0102411
0.0104322
0.0106049
0.0107589
0.0108935
0.0110082
0.0111027
0.0111774
0.0112329
0.0112706
0.0112924
0.0113007
0.0112982
0.0112878
0.0112726
0.0112555
0.0112393
0.0112261
0.0112186
0.0112189
0.0112287
0.0112493
0.0112813
0.0113252
0.0113813
9.94515e-05
0.000836646
0.00170537
0.00254526
0.0033429
0.00409357
0.004794
0.00544229
0.00603798
0.0065821
0.00707692
0.00752568
0.00793234
0.00830125
0.00863682
0.00894333
0.00922466
0.00948412
0.00972437
0.00994734
0.0101542
0.0103455
0.0105211
0.0106806
0.0108233
0.0109484
0.0110554
0.0111441
0.0112147
0.011268
0.0113053
0.0113285
0.0113397
0.0113416
0.0113367
0.0113279
0.0113176
0.0113082
0.0113017
0.0113004
0.0113061
0.0113199
0.0113429
0.0113756
0.0114181
0.000100334
0.000841518
0.0017101
0.00254964
0.00334768
0.00409916
0.00480013
0.005448
0.00604182
0.00658231
0.00707165
0.00751321
0.0079112
0.00827032
0.00859543
0.00889126
0.0091622
0.00941206
0.00964398
0.00986034
0.0100627
0.0102519
0.0104281
0.010591
0.0107398
0.0108737
0.0109917
0.0110934
0.0111785
0.0112472
0.0113002
0.0113389
0.0113649
0.0113803
0.0113875
0.0113888
0.0113866
0.0113831
0.0113803
0.01138
0.0113841
0.0113941
0.0114107
0.0114348
0.0114666
0.000101327
0.00084739
0.00171738
0.00255853
0.00335901
0.0041132
0.00481628
0.00546489
0.00605752
0.0065946
0.00707827
0.00751207
0.00790052
0.00824873
0.00856203
0.00884568
0.00910455
0.00934296
0.00956455
0.00977212
0.00996768
0.0101524
0.0103268
0.0104905
0.0106431
0.0107835
0.0109107
0.0110238
0.0111221
0.0112053
0.0112737
0.011328
0.0113693
0.0113992
0.0114197
0.0114327
0.0114404
0.0114449
0.0114481
0.0114516
0.0114569
0.0114657
0.011479
0.0114974
0.0115216
0.000102434
0.000854298
0.00172743
0.00257243
0.00337772
0.00413679
0.00484376
0.00549438
0.00608654
0.0066204
0.00709814
0.00752353
0.00790149
0.00823762
0.00853778
0.00880775
0.00905291
0.0092781
0.00948739
0.00968406
0.00987051
0.0100483
0.0102182
0.0103802
0.0105338
0.0106782
0.0108121
0.0109344
0.011044
0.0111404
0.0112231
0.0112923
0.0113488
0.0113935
0.011428
0.0114538
0.0114728
0.0114869
0.0114979
0.0115073
0.0115166
0.011527
0.0115398
0.0115557
0.0115753
0.000103669
0.000862349
0.00174068
0.00259217
0.00340503
0.00417149
0.00488437
0.00553834
0.00613072
0.00666144
0.00713281
0.00754896
0.00791535
0.00823813
0.00852376
0.00877857
0.00900846
0.00921873
0.00941391
0.00959766
0.00977279
0.00994121
0.010104
0.0102614
0.0104132
0.0105586
0.0106963
0.010825
0.0109436
0.0110509
0.0111461
0.0112291
0.0112998
0.0113588
0.0114072
0.0114462
0.0114773
0.0115021
0.0115221
0.011539
0.0115541
0.0115686
0.0115835
0.0115996
0.0116176
0.000105057
0.000871777
0.00175787
0.00261914
0.00344293
0.00421974
0.00494075
0.00559947
0.0061926
0.00671998
0.0071842
0.00758998
0.00794342
0.00825139
0.008521
0.00875915
0.00897227
0.00916607
0.00934547
0.00951449
0.00967626
0.009833
0.00998612
0.0101362
0.0102831
0.0104263
0.0105645
0.0106966
0.010821
0.0109364
0.0110417
0.0111361
0.0112194
0.0112915
0.0113529
0.0114046
0.0114477
0.0114834
0.0115131
0.0115383
0.0115602
0.01158
0.0115988
0.0116173
0.0116363
0.000106643
0.000883067
0.00178042
0.00265578
0.00349475
0.00428546
0.00501706
0.00568179
0.00627581
0.00679909
0.00725481
0.00764849
0.00798716
0.00827852
0.00853042
0.00875036
0.00894525
0.00912118
0.00928334
0.00943605
0.00958267
0.00972569
0.00986677
0.0100068
0.0101458
0.0102835
0.0104189
0.0105506
0.0106773
0.0107974
0.0109095
0.0110126
0.0111058
0.0111887
0.0112615
0.0113244
0.0113784
0.0114243
0.0114634
0.0114968
0.0115257
0.0115514
0.0115747
0.0115967
0.0116179
0.000108507
0.000897171
0.00181091
0.00270639
0.00356617
0.00437513
0.00511993
0.00579148
0.00638568
0.00690307
0.00734787
0.00772683
0.00804815
0.00832058
0.00855276
0.00875282
0.00892805
0.00908483
0.00922855
0.00936365
0.00949367
0.00962124
0.00974821
0.00987566
0.010004
0.010133
0.0102619
0.0103896
0.0105147
0.0106356
0.0107507
0.0108587
0.0109584
0.0110492
0.0111305
0.0112024
0.0112652
0.0113197
0.0113666
0.0114071
0.0114423
0.0114731
0.0115007
0.0115259
0.0115495
0.000110789
0.000915862
0.00185403
0.0027786
0.00366702
0.00449957
0.00525997
0.00593802
0.00653002
0.00703788
0.0074676
0.00782773
0.00812802
0.00837843
0.00858846
0.00876674
0.00892089
0.0090574
0.00918171
0.00929826
0.00941058
0.00952135
0.00963253
0.00974535
0.0098604
0.00997771
0.0100968
0.0102166
0.010336
0.0104534
0.0105672
0.0106759
0.0107781
0.0108728
0.0109591
0.0110367
0.0111055
0.0111658
0.0112183
0.0112637
0.0113031
0.0113374
0.0113676
0.0113947
0.0114195
0.000113727
0.000942337
0.00191828
0.00288607
0.00381434
0.00467682
0.00545403
0.00613562
0.00671978
0.00721125
0.00761899
0.00795405
0.00822811
0.00845245
0.00863731
0.00879172
0.00892336
0.00903866
0.00914287
0.00924027
0.00933421
0.0094273
0.00952146
0.00961798
0.00971761
0.00982054
0.00992652
0.0100348
0.0101444
0.0102539
0.0103619
0.0104667
0.0105668
0.0106609
0.010748
0.0108273
0.0108983
0.010961
0.0110158
0.0110632
0.0111039
0.0111389
0.0111691
0.0111956
0.0112191
0.000117693
0.000982338
0.00201925
0.00305356
0.00403785
0.00493659
0.00572804
0.00640453
0.00696927
0.00743231
0.00780709
0.00810799
0.0083488
0.00854193
0.00869813
0.00882641
0.00893421
0.00902756
0.00911132
0.00918935
0.00926467
0.00933965
0.00941606
0.00949514
0.00957769
0.00966406
0.00975417
0.00984759
0.0099435
0.0100408
0.0101382
0.0102342
0.0103273
0.010416
0.0104991
0.0105755
0.0106445
0.0107057
0.0107591
0.0108048
0.0108435
0.0108759
0.0109028
0.0109252
0.0109442
0.000123357
0.00104642
0.0021871
0.00332786
0.00439025
0.00532716
0.00611999
0.00677109
0.00729457
0.00770938
0.00803504
0.00828952
0.00848831
0.00864436
0.00876818
0.0088682
0.00895111
0.00902217
0.0090855
0.00914436
0.00920126
0.00925818
0.0093166
0.00937763
0.00944202
0.00951017
0.00958217
0.0096578
0.00973654
0.00981756
0.00989982
0.00998208
0.010063
0.0101411
0.0102152
0.0102839
0.0103464
0.0104019
0.01045
0.0104906
0.0105239
0.0105504
0.0105708
0.0105861
0.0105971
0.000132318
0.00115651
0.00248886
0.00380627
0.00496864
0.0059251
0.00668043
0.0072634
0.00770797
0.00804509
0.00830031
0.00849383
0.00864125
0.00875454
0.00884284
0.00891313
0.00897072
0.00901969
0.00906314
0.0091035
0.00914262
0.00918197
0.00922266
0.00926554
0.00931123
0.00936012
0.00941237
0.00946793
0.00952652
0.00958762
0.00965052
0.00971432
0.00977793
0.00984021
0.00989994
0.00995596
0.0100072
0.0100527
0.0100919
0.0101242
0.0101496
0.0101682
0.0101803
0.0101866
0.0101878
0.000149749
0.00137934
0.00312153
0.00472697
0.00596059
0.00684261
0.00746107
0.007896
0.00820517
0.00842763
0.00858954
0.00870867
0.00879735
0.00886427
0.00891569
0.00895619
0.00898912
0.009017
0.00904173
0.00906474
0.00908716
0.00910984
0.00913349
0.00915862
0.00918565
0.00921485
0.00924638
0.00928029
0.00931646
0.00935467
0.00939452
0.0094355
0.00947694
0.00951808
0.00955807
0.00959601
0.00963101
0.00966225
0.00968896
0.00971054
0.00972658
0.00973682
0.00974127
0.0097401
0.00973373
0.000208091
0.00214609
0.0050053
0.00679512
0.00770699
0.00818712
0.00846195
0.00863211
0.00874393
0.00882054
0.00887456
0.00891348
0.00894203
0.00896336
0.00897964
0.0089924
0.00900277
0.00901155
0.00901937
0.00902669
0.00903386
0.00904117
0.00904885
0.00905708
0.009066
0.00907572
0.00908632
0.00909782
0.00911022
0.00912347
0.00913746
0.00915203
0.00916697
0.00918202
0.00919686
0.00921112
0.00922444
0.00923642
0.00924665
0.00925478
0.00926048
0.00926347
0.00926356
0.00926064
0.00925471
)
;

boundaryField
{
    leftWall
    {
        type            nutkWallFunction;
        Cmu             0.09;
        kappa           0.41;
        E               9.8;
        value           nonuniform List<scalar> 
42
(
6.07602e-06
5.97439e-06
5.86549e-06
5.75081e-06
5.63181e-06
5.51001e-06
5.38692e-06
5.26408e-06
5.14301e-06
5.02522e-06
4.91217e-06
4.80525e-06
4.70587e-06
4.61539e-06
4.53518e-06
4.46654e-06
4.41064e-06
4.36852e-06
4.34107e-06
4.32907e-06
4.33315e-06
4.35384e-06
4.39153e-06
4.44655e-06
4.51906e-06
4.60914e-06
4.71669e-06
4.84157e-06
4.98371e-06
5.14327e-06
5.32104e-06
5.51891e-06
5.74072e-06
5.99342e-06
6.28898e-06
6.64845e-06
7.10764e-06
7.7227e-06
8.59245e-06
9.95071e-06
1.25469e-05
2.09735e-05
)
;
    }
    rightWall
    {
        type            nutkWallFunction;
        Cmu             0.09;
        kappa           0.41;
        E               9.8;
        value           nonuniform 0();
    }
    lowerWall
    {
        type            nutkWallFunction;
        Cmu             0.09;
        kappa           0.41;
        E               9.8;
        value           nonuniform 0();
    }
    atmosphere
    {
        type            calculated;
        value           uniform 0.009;
    }
    defaultFaces
    {
        type            empty;
    }
    procBoundary2to0
    {
        type            processor;
        value           nonuniform List<scalar> 
46
(
0.0114901
0.0116367
0.0117601
0.0118622
0.0119454
0.0120117
0.0120635
0.0121027
0.0121316
0.012152
0.0121658
0.0121747
0.0121805
0.0121847
0.0121887
0.0121941
0.0122023
0.0122152
0.0122347
0.012263
0.0123027
0.0123565
0.0124274
0.0125188
0.0126334
0.000107976
0.000935517
0.00198308
0.00300162
0.00395673
0.00484123
0.00565457
0.00639891
0.00707777
0.00769524
0.00825556
0.00876281
0.0092208
0.00963297
0.0100024
0.0103319
0.0106239
0.0108807
0.0111046
0.0112976
0.0112976
)
;
    }
    procBoundary2to3
    {
        type            processor;
        value           nonuniform List<scalar> 
43
(
0.0126377
0.0125052
0.0123793
0.0122629
0.0121583
0.0120677
0.0119926
0.0119346
0.0118941
0.0118709
0.0118634
0.0118685
0.011882
0.0118997
0.0119166
0.0119277
0.0119285
0.0119152
0.0118854
0.0118388
0.0117774
0.0117056
0.01163
0.0115588
0.0115005
0.0114628
0.0114466
0.0114496
0.0114705
0.0115062
0.0115516
0.011599
0.0116381
0.0116562
0.0116389
0.0115721
0.0114428
0.0112407
0.0109607
0.0106049
0.010185
0.00972273
0.00924583
)
;
    }
}


// ************************************************************************* //
