/*--------------------------------*- C++ -*----------------------------------*\
| =========                 |                                                 |
| \\      /  F ield         | OpenFOAM: The Open Source CFD Toolbox           |
|  \\    /   O peration     | Version:  5.0                                   |
|   \\  /    A nd           | Web:      www.OpenFOAM.org                      |
|    \\/     M anipulation  |                                                 |
\*---------------------------------------------------------------------------*/
FoamFile
{
    version     2.0;
    format      ascii;
    class       volScalarField;
    location    "0.6";
    object      p;
}
// * * * * * * * * * * * * * * * * * * * * * * * * * * * * * * * * * * * * * //

dimensions      [1 -1 -2 0 0 0 0];

internalField   nonuniform List<scalar> 
1915
(
-2.07875
-2.07863
-2.0784
-2.07807
-2.07763
-2.07705
-2.07632
-2.07542
-2.07432
-2.07301
-2.07144
-2.06958
-2.06739
-2.06483
-2.06183
-2.05836
-2.05433
-2.0497
-2.04439
-2.03834
-2.03147
-2.0237
-2.01497
-2.00523
-1.99446
-2.13473
-2.1361
-2.13783
-2.13953
-2.14107
-2.14246
-2.14372
-2.14484
-2.14585
-2.14676
-2.14757
-2.14829
-2.14893
-2.14949
-2.14998
-2.15039
-2.15073
-2.15099
-2.15118
-2.15129
-2.15132
-2.15125
-2.1511
-2.15085
-2.1505
-2.15004
-2.14946
-2.14873
-2.14784
-2.14677
-2.14549
-2.14398
-2.14222
-2.14015
-2.13776
-2.13499
-2.1318
-2.12816
-2.12401
-2.11933
-2.11405
-2.10816
-2.10163
-2.09444
-2.08661
-2.20689
-2.20828
-2.21005
-2.2118
-2.21339
-2.21483
-2.21614
-2.21732
-2.21838
-2.21933
-2.22019
-2.22096
-2.22164
-2.22225
-2.22278
-2.22324
-2.22362
-2.22393
-2.22416
-2.22432
-2.2244
-2.22441
-2.22433
-2.22417
-2.22393
-2.22359
-2.22315
-2.2226
-2.22193
-2.22111
-2.22014
-2.219
-2.21767
-2.21613
-2.21436
-2.21232
-2.21001
-2.20739
-2.20446
-2.20119
-2.19759
-2.19365
-2.18939
-2.18486
-2.1801
-2.27972
-2.28112
-2.2829
-2.28468
-2.2863
-2.28778
-2.28913
-2.29035
-2.29146
-2.29246
-2.29336
-2.29417
-2.2949
-2.29555
-2.29612
-2.29662
-2.29705
-2.29741
-2.29769
-2.29791
-2.29805
-2.29812
-2.29813
-2.29807
-2.29794
-2.29773
-2.29745
-2.29708
-2.29663
-2.29608
-2.29542
-2.29466
-2.29377
-2.29276
-2.29161
-2.29031
-2.28888
-2.28729
-2.28558
-2.28374
-2.28182
-2.27984
-2.27788
-2.27602
-2.27435
-2.35323
-2.35463
-2.35641
-2.35819
-2.35984
-2.36135
-2.36272
-2.36398
-2.36512
-2.36615
-2.36709
-2.36794
-2.36872
-2.36941
-2.37003
-2.37057
-2.37105
-2.37146
-2.3718
-2.37207
-2.37228
-2.37243
-2.37253
-2.37256
-2.37255
-2.37248
-2.37236
-2.37219
-2.37196
-2.37167
-2.37134
-2.37094
-2.3705
-2.37
-2.36947
-2.3689
-2.36832
-2.36775
-2.36723
-2.36679
-2.3665
-2.36645
-2.36673
-2.36748
-2.36885
-2.42744
-2.42881
-2.43058
-2.43236
-2.43401
-2.43553
-2.43693
-2.4382
-2.43937
-2.44044
-2.44142
-2.44231
-2.44312
-2.44385
-2.44452
-2.44511
-2.44564
-2.4461
-2.4465
-2.44684
-2.44712
-2.44735
-2.44754
-2.44768
-2.44779
-2.44786
-2.44791
-2.44792
-2.44792
-2.4479
-2.44788
-2.44785
-2.44783
-2.44784
-2.4479
-2.44804
-2.44828
-2.44867
-2.44928
-2.45017
-2.45144
-2.45321
-2.45562
-2.45887
-2.46311
-2.50235
-2.50369
-2.50543
-2.50719
-2.50884
-2.51036
-2.51176
-2.51306
-2.51425
-2.51534
-2.51635
-2.51728
-2.51812
-2.5189
-2.51961
-2.52025
-2.52083
-2.52135
-2.52181
-2.52222
-2.52258
-2.5229
-2.52318
-2.52343
-2.52366
-2.52388
-2.52409
-2.5243
-2.52452
-2.52476
-2.52504
-2.52536
-2.52576
-2.52625
-2.52687
-2.52766
-2.52866
-2.52996
-2.53161
-2.53374
-2.53644
-2.53989
-2.54427
-2.5498
-2.55671
-2.57796
-2.57927
-2.58097
-2.5827
-2.58433
-2.58584
-2.58725
-2.58855
-2.58976
-2.59088
-2.59191
-2.59287
-2.59375
-2.59457
-2.59532
-2.59601
-2.59665
-2.59722
-2.59775
-2.59823
-2.59867
-2.59908
-2.59946
-2.59983
-2.60019
-2.60055
-2.60092
-2.60132
-2.60176
-2.60225
-2.60282
-2.60348
-2.60426
-2.60519
-2.60633
-2.60772
-2.60943
-2.61153
-2.61414
-2.61736
-2.62136
-2.6263
-2.63243
-2.63999
-2.64926
-2.65429
-2.65555
-2.6572
-2.65889
-2.66049
-2.66199
-2.6634
-2.6647
-2.66592
-2.66706
-2.66811
-2.6691
-2.67002
-2.67087
-2.67167
-2.67241
-2.6731
-2.67374
-2.67433
-2.67489
-2.67542
-2.67591
-2.6764
-2.67688
-2.67737
-2.67787
-2.67841
-2.67899
-2.67964
-2.68037
-2.6812
-2.68217
-2.68331
-2.68465
-2.68625
-2.68818
-2.69051
-2.69333
-2.69676
-2.70095
-2.70605
-2.71228
-2.7199
-2.72919
-2.74046
-2.73132
-2.73255
-2.73414
-2.73579
-2.73735
-2.73883
-2.74022
-2.74152
-2.74275
-2.74389
-2.74497
-2.74598
-2.74693
-2.74782
-2.74866
-2.74946
-2.7502
-2.7509
-2.75157
-2.7522
-2.75281
-2.75341
-2.75399
-2.75459
-2.7552
-2.75584
-2.75654
-2.7573
-2.75814
-2.75909
-2.76018
-2.76143
-2.76289
-2.7646
-2.76661
-2.76901
-2.77186
-2.7753
-2.77943
-2.78441
-2.79043
-2.79772
-2.80654
-2.81722
-2.8301
-2.80908
-2.81025
-2.81179
-2.81338
-2.81491
-2.81636
-2.81773
-2.81903
-2.82025
-2.82141
-2.8225
-2.82353
-2.82451
-2.82544
-2.82632
-2.82716
-2.82796
-2.82873
-2.82947
-2.83018
-2.83087
-2.83156
-2.83225
-2.83295
-2.83369
-2.83447
-2.83532
-2.83624
-2.83727
-2.83843
-2.83974
-2.84125
-2.84299
-2.84501
-2.84738
-2.85016
-2.85347
-2.85739
-2.86208
-2.8677
-2.87444
-2.88253
-2.89228
-2.904
-2.91804
-2.88755
-2.88867
-2.89015
-2.89169
-2.89317
-2.89459
-2.89594
-2.89722
-2.89844
-2.8996
-2.9007
-2.90176
-2.90276
-2.90372
-2.90465
-2.90554
-2.90639
-2.90722
-2.90803
-2.90881
-2.90959
-2.91037
-2.91116
-2.91198
-2.91284
-2.91375
-2.91473
-2.91581
-2.91701
-2.91836
-2.91987
-2.9216
-2.92358
-2.92587
-2.92853
-2.93164
-2.93529
-2.9396
-2.94472
-2.9508
-2.95805
-2.96672
-2.97709
-2.9895
-3.0043
-2.96674
-2.96781
-2.96922
-2.9707
-2.97214
-2.97352
-2.97485
-2.97612
-2.97733
-2.97849
-2.9796
-2.98067
-2.9817
-2.98269
-2.98366
-2.98459
-2.9855
-2.98639
-2.98726
-2.98812
-2.98898
-2.98985
-2.99074
-2.99166
-2.99263
-2.99366
-2.99478
-2.99601
-2.99736
-2.99887
-3.00056
-3.00248
-3.00467
-3.00717
-3.01006
-3.01341
-3.01733
-3.02192
-3.02732
-3.03371
-3.04129
-3.05029
-3.06102
-3.07379
-3.08896
-3.04664
-3.04767
-3.04902
-3.05044
-3.05183
-3.05317
-3.05447
-3.05571
-3.05692
-3.05807
-3.05919
-3.06027
-3.06132
-3.06235
-3.06334
-3.06432
-3.06528
-3.06622
-3.06716
-3.06809
-3.06903
-3.06999
-3.07097
-3.07199
-3.07307
-3.07422
-3.07546
-3.07681
-3.0783
-3.07996
-3.0818
-3.08388
-3.08623
-3.08891
-3.09197
-3.0955
-3.09959
-3.10435
-3.10993
-3.11648
-3.12421
-3.13334
-3.14418
-3.15701
-3.17219
-3.12726
-3.12825
-3.12953
-3.13089
-3.13223
-3.13353
-3.1348
-3.13602
-3.13721
-3.13836
-3.13948
-3.14057
-3.14164
-3.14269
-3.14372
-3.14473
-3.14574
-3.14673
-3.14773
-3.14873
-3.14974
-3.15078
-3.15185
-3.15297
-3.15415
-3.1554
-3.15675
-3.15822
-3.15983
-3.16161
-3.16359
-3.16579
-3.16827
-3.17107
-3.17426
-3.1779
-3.18209
-3.18693
-3.19257
-3.19916
-3.20689
-3.21598
-3.22671
-3.23936
-3.25424
-3.20859
-3.20954
-3.21076
-3.21206
-3.21335
-3.21461
-3.21585
-3.21705
-3.21822
-3.21936
-3.22048
-3.22158
-3.22266
-3.22373
-3.22478
-3.22583
-3.22688
-3.22792
-3.22897
-3.23004
-3.23112
-3.23223
-3.23338
-3.23459
-3.23586
-3.23721
-3.23866
-3.24023
-3.24195
-3.24383
-3.24591
-3.24822
-3.25079
-3.25368
-3.25694
-3.26064
-3.26486
-3.26972
-3.27533
-3.28185
-3.28945
-3.29835
-3.3088
-3.32105
-3.33539
-3.29064
-3.29155
-3.29271
-3.29396
-3.2952
-3.29642
-3.29762
-3.29879
-3.29994
-3.30107
-3.30219
-3.30329
-3.30438
-3.30546
-3.30654
-3.30762
-3.3087
-3.30979
-3.31089
-3.31201
-3.31316
-3.31434
-3.31556
-3.31684
-3.31819
-3.31963
-3.32117
-3.32283
-3.32464
-3.32661
-3.32877
-3.33115
-3.33379
-3.33673
-3.34003
-3.34374
-3.34795
-3.35275
-3.35826
-3.36462
-3.372
-3.38059
-3.39063
-3.40234
-3.41595
-3.37341
-3.37427
-3.37539
-3.37658
-3.37777
-3.37894
-3.38011
-3.38125
-3.38238
-3.3835
-3.38461
-3.3857
-3.3868
-3.38789
-3.38899
-3.39009
-3.3912
-3.39233
-3.39347
-3.39464
-3.39585
-3.39709
-3.39838
-3.39973
-3.40116
-3.40267
-3.40429
-3.40602
-3.4079
-3.40994
-3.41216
-3.4146
-3.41729
-3.42026
-3.42356
-3.42725
-3.43139
-3.43609
-3.44145
-3.44759
-3.45468
-3.46288
-3.4724
-3.48346
-3.49623
-3.45688
-3.45772
-3.45878
-3.45992
-3.46106
-3.46219
-3.46332
-3.46444
-3.46554
-3.46664
-3.46773
-3.46883
-3.46992
-3.47102
-3.47213
-3.47325
-3.47438
-3.47554
-3.47673
-3.47794
-3.47919
-3.48049
-3.48184
-3.48325
-3.48474
-3.48632
-3.488
-3.4898
-3.49173
-3.49383
-3.4961
-3.49857
-3.50128
-3.50426
-3.50754
-3.51118
-3.51524
-3.51981
-3.52497
-3.53086
-3.5376
-3.54535
-3.55431
-3.56465
-3.57653
-3.54107
-3.54187
-3.54289
-3.54398
-3.54507
-3.54616
-3.54726
-3.54834
-3.54942
-3.5505
-3.55158
-3.55266
-3.55375
-3.55485
-3.55596
-3.55709
-3.55825
-3.55943
-3.56065
-3.5619
-3.56319
-3.56453
-3.56593
-3.5674
-3.56894
-3.57057
-3.5723
-3.57415
-3.57614
-3.57827
-3.58058
-3.58308
-3.58579
-3.58875
-3.592
-3.59558
-3.59953
-3.60395
-3.6089
-3.6145
-3.62088
-3.62816
-3.63653
-3.64613
-3.65711
-3.62598
-3.62675
-3.62772
-3.62876
-3.62981
-3.63086
-3.63191
-3.63297
-3.63402
-3.63507
-3.63613
-3.6372
-3.63828
-3.63937
-3.64049
-3.64163
-3.6428
-3.644
-3.64523
-3.64651
-3.64784
-3.64922
-3.65066
-3.65217
-3.65375
-3.65543
-3.6572
-3.65909
-3.66111
-3.66328
-3.6656
-3.66811
-3.67082
-3.67376
-3.67696
-3.68046
-3.68431
-3.68856
-3.6933
-3.69861
-3.70461
-3.71142
-3.7192
-3.72808
-3.73818
-3.71159
-3.71234
-3.71326
-3.71426
-3.71527
-3.71628
-3.7173
-3.71832
-3.71934
-3.72036
-3.7214
-3.72245
-3.72351
-3.7246
-3.72571
-3.72685
-3.72802
-3.72924
-3.73049
-3.73179
-3.73314
-3.73455
-3.73602
-3.73756
-3.73918
-3.74088
-3.74269
-3.74461
-3.74666
-3.74884
-3.75118
-3.75369
-3.75639
-3.7593
-3.76244
-3.76586
-3.76959
-3.77369
-3.77821
-3.78324
-3.78888
-3.79524
-3.80244
-3.81063
-3.81991
-3.79793
-3.79865
-3.79953
-3.80049
-3.80145
-3.80243
-3.8034
-3.80439
-3.80538
-3.80638
-3.80738
-3.80841
-3.80946
-3.81053
-3.81163
-3.81276
-3.81394
-3.81515
-3.81641
-3.81772
-3.81909
-3.82052
-3.82201
-3.82357
-3.82521
-3.82694
-3.82877
-3.83071
-3.83277
-3.83497
-3.83731
-3.83981
-3.84249
-3.84536
-3.84845
-3.85179
-3.85541
-3.85935
-3.86367
-3.86844
-3.87374
-3.87967
-3.88635
-3.89389
-3.90242
-3.88498
-3.88568
-3.88653
-3.88744
-3.88836
-3.8893
-3.89024
-3.89118
-3.89214
-3.8931
-3.89409
-3.89508
-3.89611
-3.89716
-3.89825
-3.89937
-3.90053
-3.90174
-3.90301
-3.90432
-3.90569
-3.90713
-3.90863
-3.91021
-3.91186
-3.91361
-3.91545
-3.9174
-3.91946
-3.92166
-3.92399
-3.92647
-3.92913
-3.93196
-3.935
-3.93825
-3.94176
-3.94556
-3.9497
-3.95423
-3.95922
-3.96477
-3.97096
-3.97791
-3.98578
-3.97275
-3.97342
-3.97424
-3.97512
-3.976
-3.97689
-3.9778
-3.9787
-3.97962
-3.98055
-3.9815
-3.98247
-3.98347
-3.9845
-3.98556
-3.98667
-3.98782
-3.98902
-3.99027
-3.99158
-3.99295
-3.99439
-3.99589
-3.99747
-3.99913
-4.00088
-4.00272
-4.00467
-4.00673
-4.00891
-4.01123
-4.01369
-4.01631
-4.0191
-4.02207
-4.02525
-4.02866
-4.03233
-4.0363
-4.04062
-4.04534
-4.05054
-4.0563
-4.06273
-4.07
-4.06124
-4.0619
-4.06268
-4.06352
-4.06437
-4.06522
-4.06608
-4.06695
-4.06783
-4.06873
-4.06964
-4.07058
-4.07154
-4.07254
-4.07358
-4.07466
-4.07579
-4.07697
-4.07821
-4.07951
-4.08087
-4.0823
-4.08379
-4.08537
-4.08702
-4.08876
-4.09059
-4.09253
-4.09457
-4.09674
-4.09903
-4.10146
-4.10404
-4.10677
-4.10969
-4.11279
-4.11611
-4.11965
-4.12347
-4.12759
-4.13207
-4.13697
-4.14235
-4.14833
-4.15508
-4.15047
-4.1511
-4.15185
-4.15266
-4.15346
-4.15428
-4.1551
-4.15592
-4.15676
-4.15762
-4.1585
-4.1594
-4.16033
-4.16129
-4.1623
-4.16336
-4.16446
-4.16562
-4.16684
-4.16811
-4.16945
-4.17086
-4.17234
-4.1739
-4.17553
-4.17725
-4.17907
-4.18098
-4.183
-4.18513
-4.18739
-4.18977
-4.1923
-4.19499
-4.19783
-4.20086
-4.20408
-4.20751
-4.21119
-4.21514
-4.2194
-4.22403
-4.22909
-4.23467
-4.24094
-4.24042
-4.24104
-4.24176
-4.24252
-4.24329
-4.24406
-4.24484
-4.24563
-4.24643
-4.24724
-4.24808
-4.24894
-4.24983
-4.25076
-4.25174
-4.25276
-4.25383
-4.25496
-4.25614
-4.25739
-4.25871
-4.26009
-4.26154
-4.26307
-4.26468
-4.26637
-4.26815
-4.27003
-4.27201
-4.2741
-4.27631
-4.27865
-4.28112
-4.28374
-4.28651
-4.28945
-4.29257
-4.29589
-4.29943
-4.30322
-4.30729
-4.31168
-4.31645
-4.32168
-4.32753
-4.33112
-4.33171
-4.3324
-4.33313
-4.33386
-4.33459
-4.33532
-4.33607
-4.33682
-4.33759
-4.33839
-4.33921
-4.34006
-4.34095
-4.34189
-4.34287
-4.3439
-4.34499
-4.34614
-4.34736
-4.34863
-4.34998
-4.3514
-4.35289
-4.35446
-4.35611
-4.35785
-4.35969
-4.36162
-4.36366
-4.36581
-4.36808
-4.37048
-4.37302
-4.37571
-4.37855
-4.38157
-4.38477
-4.38818
-4.39181
-4.3957
-4.39988
-4.40438
-4.40929
-4.41475
-4.42255
-4.42312
-4.42378
-4.42447
-4.42516
-4.42585
-4.42654
-4.42724
-4.42795
-4.42868
-4.42943
-4.43021
-4.43102
-4.43187
-4.43276
-4.4337
-4.43469
-4.43574
-4.43685
-4.43801
-4.43925
-4.44055
-4.44192
-4.44337
-4.44489
-4.44649
-4.44818
-4.44995
-4.45182
-4.4538
-4.45588
-4.45807
-4.46039
-4.46284
-4.46543
-4.46817
-4.47107
-4.47415
-4.47742
-4.48089
-4.4846
-4.48856
-4.49282
-4.49743
-4.50252
-4.51474
-4.51528
-4.5159
-4.51655
-4.5172
-4.51785
-4.5185
-4.51916
-4.51983
-4.52052
-4.52122
-4.52196
-4.52272
-4.52352
-4.52437
-4.52526
-4.5262
-4.5272
-4.52826
-4.52938
-4.53056
-4.53181
-4.53312
-4.53451
-4.53598
-4.53752
-4.53914
-4.54084
-4.54264
-4.54453
-4.54653
-4.54864
-4.55086
-4.5532
-4.55568
-4.55831
-4.56108
-4.56402
-4.56713
-4.57044
-4.57395
-4.5777
-4.58171
-4.58604
-4.59077
-4.60767
-4.60818
-4.60876
-4.60937
-4.60999
-4.6106
-4.61122
-4.61184
-4.61247
-4.61311
-4.61377
-4.61445
-4.61517
-4.61592
-4.61672
-4.61755
-4.61845
-4.61939
-4.62039
-4.62145
-4.62257
-4.62376
-4.62501
-4.62634
-4.62773
-4.6292
-4.63074
-4.63237
-4.63408
-4.63588
-4.63778
-4.63978
-4.64189
-4.64412
-4.64648
-4.64896
-4.65159
-4.65437
-4.65732
-4.66044
-4.66376
-4.66728
-4.67104
-4.67507
-4.67944
-4.70136
-4.70182
-4.70237
-4.70295
-4.70353
-4.70412
-4.7047
-4.70528
-4.70586
-4.70646
-4.70708
-4.70771
-4.70838
-4.70908
-4.70982
-4.7106
-4.71144
-4.71232
-4.71326
-4.71425
-4.71531
-4.71643
-4.71761
-4.71885
-4.72017
-4.72155
-4.72301
-4.72454
-4.72615
-4.72785
-4.72964
-4.73153
-4.73351
-4.73561
-4.73782
-4.74016
-4.74263
-4.74524
-4.748
-4.75092
-4.75401
-4.7573
-4.76079
-4.76451
-4.76852
-4.79581
-4.79622
-4.79673
-4.79729
-4.79785
-4.7984
-4.79895
-4.7995
-4.80004
-4.80059
-4.80116
-4.80175
-4.80237
-4.80301
-4.8037
-4.80442
-4.80519
-4.80601
-4.80688
-4.8078
-4.80878
-4.80982
-4.81092
-4.81207
-4.8133
-4.81459
-4.81594
-4.81737
-4.81888
-4.82046
-4.82213
-4.82389
-4.82574
-4.82769
-4.82974
-4.83191
-4.83421
-4.83662
-4.83918
-4.84188
-4.84473
-4.84776
-4.85096
-4.85437
-4.85801
-4.89101
-4.89137
-4.89187
-4.89242
-4.89296
-4.89349
-4.89401
-4.89452
-4.89502
-4.89553
-4.89605
-4.89658
-4.89715
-4.89774
-4.89836
-4.89902
-4.89972
-4.90047
-4.90127
-4.90211
-4.903
-4.90395
-4.90496
-4.90602
-4.90714
-4.90833
-4.90957
-4.91089
-4.91227
-4.91373
-4.91527
-4.91688
-4.91858
-4.92037
-4.92226
-4.92425
-4.92635
-4.92856
-4.93089
-4.93336
-4.93596
-4.9387
-4.94161
-4.94468
-4.94794
-4.98698
-4.98731
-4.98781
-4.98836
-4.9889
-4.98941
-4.9899
-4.99036
-4.99082
-4.99128
-4.99175
-4.99223
-4.99274
-4.99327
-4.99382
-4.99442
-4.99505
-4.99572
-4.99643
-4.99719
-4.998
-4.99885
-4.99975
-5.00071
-5.00172
-5.00279
-5.00392
-5.00511
-5.00636
-5.00768
-5.00907
-5.01053
-5.01207
-5.01369
-5.01539
-5.01719
-5.01908
-5.02107
-5.02317
-5.02538
-5.02771
-5.03017
-5.03276
-5.03549
-5.03837
-5.08374
-5.0841
-5.08463
-5.0852
-5.08573
-5.08621
-5.08665
-5.08707
-5.08748
-5.08788
-5.08829
-5.08872
-5.08916
-5.08962
-5.09011
-5.09064
-5.09119
-5.09178
-5.09241
-5.09307
-5.09378
-5.09453
-5.09532
-5.09616
-5.09706
-5.098
-5.099
-5.10005
-5.10116
-5.10233
-5.10356
-5.10486
-5.10622
-5.10766
-5.10917
-5.11076
-5.11244
-5.1142
-5.11605
-5.118
-5.12005
-5.12221
-5.12447
-5.12685
-5.12935
-5.18131
-5.18183
-5.18243
-5.18302
-5.18352
-5.18395
-5.18433
-5.18468
-5.18501
-5.18535
-5.1857
-5.18605
-5.18643
-5.18683
-5.18724
-5.18769
-5.18816
-5.18866
-5.1892
-5.18976
-5.19037
-5.191
-5.19168
-5.1924
-5.19317
-5.19397
-5.19483
-5.19574
-5.19669
-5.1977
-5.19877
-5.19989
-5.20107
-5.20231
-5.20362
-5.20499
-5.20644
-5.20797
-5.20957
-5.21125
-5.21301
-5.21487
-5.21681
-5.21884
-5.22096
-5.27956
-5.28059
-5.28135
-5.28193
-5.28236
-5.28268
-5.28295
-5.2832
-5.28345
-5.28371
-5.28398
-5.28427
-5.28457
-5.2849
-5.28524
-5.2856
-5.28599
-5.2864
-5.28683
-5.2873
-5.28779
-5.28831
-5.28886
-5.28945
-5.29008
-5.29074
-5.29145
-5.2922
-5.29299
-5.29383
-5.29471
-5.29565
-5.29663
-5.29767
-5.29877
-5.29992
-5.30113
-5.30241
-5.30375
-5.30516
-5.30664
-5.30819
-5.30981
-5.3115
-5.31325
-5.37827
-5.38036
-5.38142
-5.38201
-5.38229
-5.38244
-5.38255
-5.38267
-5.38282
-5.38299
-5.38318
-5.38339
-5.38362
-5.38387
-5.38413
-5.3844
-5.3847
-5.38501
-5.38534
-5.38569
-5.38607
-5.38647
-5.38689
-5.38734
-5.38783
-5.38834
-5.38889
-5.38947
-5.39009
-5.39074
-5.39144
-5.39217
-5.39295
-5.39378
-5.39465
-5.39557
-5.39654
-5.39756
-5.39864
-5.39977
-5.40095
-5.4022
-5.4035
-5.40485
-5.40626
-5.47864
-5.48181
-5.48327
-5.48343
-5.48325
-5.48309
-5.48301
-5.483
-5.48305
-5.48314
-5.48325
-5.48339
-5.48355
-5.48371
-5.48389
-5.48408
-5.48428
-5.48449
-5.48471
-5.48495
-5.4852
-5.48547
-5.48576
-5.48607
-5.4864
-5.48676
-5.48714
-5.48755
-5.48798
-5.48845
-5.48895
-5.48948
-5.49004
-5.49064
-5.49128
-5.49196
-5.49268
-5.49344
-5.49425
-5.4951
-5.49599
-5.49693
-5.49791
-5.49894
-5.5
-5.58402
-5.58854
-5.59031
-5.58737
-5.5853
-5.58445
-5.58412
-5.584
-5.58399
-5.58402
-5.58409
-5.58417
-5.58426
-5.58435
-5.58444
-5.58454
-5.58465
-5.58475
-5.58487
-5.58499
-5.58512
-5.58526
-5.58541
-5.58557
-5.58575
-5.58595
-5.58617
-5.5864
-5.58665
-5.58693
-5.58723
-5.58755
-5.5879
-5.58828
-5.58868
-5.58912
-5.58958
-5.59008
-5.59062
-5.59118
-5.59179
-5.59243
-5.59311
-5.59382
-5.59457
-5.67462
-5.70309
-5.70488
-5.69441
-5.68968
-5.688
-5.68727
-5.68691
-5.68675
-5.68668
-5.68665
-5.68664
-5.68664
-5.68663
-5.68662
-5.68661
-5.6866
-5.68658
-5.68656
-5.68654
-5.68653
-5.68651
-5.6865
-5.6865
-5.6865
-5.68651
-5.68653
-5.68656
-5.68659
-5.68664
-5.6867
-5.68677
-5.68686
-5.68696
-5.68708
-5.68722
-5.68737
-5.68754
-5.68773
-5.68794
-5.68818
-5.68844
-5.68872
-5.68903
-5.68936
)
;

boundaryField
{
    leftWall
    {
        type            calculated;
        value           nonuniform List<scalar> 
42
(
-2.13473
-2.20689
-2.27972
-2.35323
-2.42744
-2.50235
-2.57796
-2.65429
-2.73132
-2.80908
-2.88755
-2.96674
-3.04664
-3.12726
-3.20859
-3.29064
-3.37341
-3.45688
-3.54107
-3.62598
-3.71159
-3.79793
-3.88498
-3.97275
-4.06124
-4.15047
-4.24042
-4.33112
-4.42255
-4.51474
-4.60767
-4.70136
-4.79581
-4.89101
-4.98698
-5.08374
-5.18131
-5.27956
-5.37827
-5.47864
-5.58402
-5.67462
)
;
    }
    rightWall
    {
        type            calculated;
        value           nonuniform 0();
    }
    lowerWall
    {
        type            calculated;
        value           nonuniform 0();
    }
    atmosphere
    {
        type            calculated;
        value           nonuniform List<scalar> 
45
(
-5.72911
-5.73695
-5.73904
-5.73934
-5.73936
-5.7393
-5.73923
-5.73915
-5.73908
-5.73901
-5.73895
-5.73888
-5.73881
-5.73873
-5.73865
-5.73856
-5.73846
-5.73836
-5.73826
-5.73815
-5.73804
-5.73793
-5.73781
-5.7377
-5.73759
-5.73748
-5.73737
-5.73726
-5.73716
-5.73706
-5.73696
-5.73687
-5.73679
-5.73671
-5.73664
-5.73657
-5.73652
-5.73647
-5.73642
-5.73639
-5.73637
-5.73635
-5.73635
-5.73636
-5.73638
)
;
    }
    defaultFaces
    {
        type            empty;
    }
    procBoundary2to0
    {
        type            processor;
        value           nonuniform List<scalar> 
46
(
-2.00667
-2.00649
-2.0062
-2.00579
-2.00525
-2.00456
-2.0037
-2.00264
-2.00135
-1.9998
-1.99795
-1.99576
-1.99317
-1.99014
-1.9866
-1.98247
-1.97767
-1.97214
-1.96576
-1.95845
-1.95009
-1.94059
-1.92982
-1.91771
-1.90421
-2.06324
-2.06456
-2.06623
-2.06786
-2.06934
-2.07067
-2.07186
-2.07293
-2.07388
-2.07473
-2.07548
-2.07615
-2.07673
-2.07725
-2.07769
-2.07806
-2.07835
-2.07857
-2.07872
-2.07878
-2.07878
)
;
    }
    procBoundary2to3
    {
        type            processor;
        value           nonuniform List<scalar> 
43
(
-1.9827
-2.07822
-2.1752
-2.27302
-2.37103
-2.46865
-2.56534
-2.66064
-2.75416
-2.84564
-2.93493
-3.02202
-3.10704
-3.1902
-3.27181
-3.35222
-3.43183
-3.51105
-3.59022
-3.66969
-3.74971
-3.83048
-3.91214
-3.99474
-4.0783
-4.16279
-4.24812
-4.33419
-4.42091
-4.5082
-4.59599
-4.68423
-4.77287
-4.86192
-4.95141
-5.0414
-5.13196
-5.22316
-5.31507
-5.40771
-5.50111
-5.59535
-5.68971
)
;
    }
}


// ************************************************************************* //
