/*--------------------------------*- C++ -*----------------------------------*\
| =========                 |                                                 |
| \\      /  F ield         | OpenFOAM: The Open Source CFD Toolbox           |
|  \\    /   O peration     | Version:  5.0                                   |
|   \\  /    A nd           | Web:      www.OpenFOAM.org                      |
|    \\/     M anipulation  |                                                 |
\*---------------------------------------------------------------------------*/
FoamFile
{
    version     2.0;
    format      ascii;
    class       volScalarField;
    location    "0.6";
    object      p_rgh;
}
// * * * * * * * * * * * * * * * * * * * * * * * * * * * * * * * * * * * * * //

dimensions      [1 -1 -2 0 0 0 0];

internalField   nonuniform List<scalar> 
1915
(
0.265533
0.265658
0.265881
0.266209
0.266656
0.267235
0.267965
0.268865
0.26996
0.271277
0.272847
0.274705
0.276893
0.279458
0.282451
0.285928
0.28995
0.294581
0.299889
0.305943
0.312817
0.320585
0.329313
0.339057
0.349823
0.274873
0.273506
0.271778
0.270078
0.268537
0.267146
0.265892
0.264765
0.263754
0.262847
0.262037
0.261315
0.260676
0.260115
0.25963
0.259219
0.25888
0.258614
0.258424
0.258316
0.258293
0.258357
0.25851
0.258756
0.259103
0.259564
0.260152
0.260882
0.261772
0.262843
0.264118
0.265625
0.267393
0.269456
0.271852
0.274622
0.277807
0.28145
0.285594
0.290282
0.295555
0.301448
0.307982
0.315167
0.322995
0.268649
0.267256
0.265491
0.263745
0.262154
0.26071
0.259403
0.258224
0.257162
0.256207
0.25535
0.254582
0.253897
0.253291
0.252761
0.252305
0.251922
0.251612
0.251376
0.251217
0.251137
0.251134
0.251211
0.251368
0.251611
0.251948
0.252386
0.252937
0.253613
0.254427
0.255395
0.256535
0.257866
0.259408
0.261184
0.263218
0.265533
0.268147
0.27108
0.274345
0.277951
0.281893
0.28615
0.290682
0.295442
0.262364
0.260963
0.25918
0.257407
0.255781
0.2543
0.252952
0.251731
0.250627
0.249628
0.248727
0.247916
0.247187
0.246537
0.245963
0.245462
0.245034
0.244677
0.244391
0.244177
0.244033
0.243959
0.243953
0.244016
0.244148
0.244353
0.244635
0.245
0.245455
0.246005
0.246659
0.247425
0.248312
0.249326
0.250477
0.25177
0.253209
0.25479
0.256505
0.25834
0.260267
0.262245
0.264206
0.266068
0.267735
0.256013
0.254618
0.252836
0.251052
0.249407
0.247901
0.246524
0.245271
0.244131
0.243095
0.242154
0.241301
0.240531
0.239838
0.239219
0.238672
0.238196
0.237788
0.237448
0.237174
0.236963
0.236812
0.236719
0.236681
0.236696
0.236763
0.236884
0.237059
0.237288
0.237572
0.23791
0.238303
0.238748
0.239241
0.239776
0.240342
0.240922
0.241492
0.242018
0.242455
0.242743
0.2428
0.242516
0.241761
0.240397
0.249592
0.248216
0.24645
0.24467
0.24302
0.241501
0.240106
0.238828
0.237659
0.236591
0.235615
0.234724
0.233913
0.233177
0.232514
0.23192
0.231394
0.230932
0.230534
0.230195
0.229912
0.22968
0.229494
0.22935
0.229243
0.229169
0.229126
0.229108
0.229111
0.229129
0.229156
0.229183
0.229198
0.229187
0.229127
0.228995
0.228755
0.22836
0.227754
0.226862
0.225591
0.223824
0.221407
0.218166
0.213917
0.243099
0.241753
0.240016
0.238254
0.236611
0.235089
0.233684
0.23239
0.231199
0.230103
0.229096
0.22817
0.227321
0.226544
0.225837
0.225195
0.224616
0.224097
0.223636
0.223228
0.222868
0.22255
0.222268
0.222014
0.221782
0.221565
0.221355
0.221145
0.220925
0.220683
0.220408
0.220082
0.219687
0.219196
0.218576
0.217789
0.216782
0.21549
0.213832
0.211711
0.209002
0.205554
0.201173
0.195643
0.188735
0.236535
0.235226
0.233528
0.231797
0.230171
0.228656
0.227249
0.225945
0.224737
0.22362
0.222586
0.221629
0.220744
0.219927
0.219175
0.218484
0.21785
0.217272
0.216745
0.216264
0.215823
0.215416
0.215033
0.214667
0.214308
0.213947
0.213572
0.213173
0.212735
0.212243
0.211678
0.21102
0.210239
0.209301
0.208165
0.206777
0.20507
0.202965
0.20036
0.197135
0.19314
0.188193
0.182066
0.174503
0.165234
0.229901
0.228634
0.226986
0.225293
0.223693
0.222194
0.220791
0.219484
0.218266
0.217132
0.216075
0.21509
0.214171
0.213316
0.212519
0.211778
0.211088
0.210448
0.209852
0.209296
0.208772
0.208272
0.207788
0.207308
0.206822
0.206317
0.205781
0.205198
0.204551
0.20382
0.202985
0.202016
0.20088
0.199536
0.197932
0.196006
0.19368
0.190858
0.187426
0.183242
0.178137
0.171904
0.164287
0.154996
0.143725
0.223201
0.22198
0.220386
0.21874
0.217173
0.215696
0.214305
0.213
0.211777
0.210631
0.209555
0.208545
0.207595
0.206702
0.205861
0.205069
0.204324
0.20362
0.202955
0.202321
0.201713
0.201119
0.200532
0.199938
0.199325
0.19868
0.197987
0.197228
0.196383
0.19543
0.194344
0.193092
0.191636
0.189929
0.187914
0.18552
0.18266
0.179229
0.175099
0.170116
0.164094
0.156808
0.147982
0.137301
0.12443
0.216439
0.215265
0.213731
0.212136
0.210608
0.209159
0.207785
0.206489
0.205265
0.204111
0.203019
0.201987
0.201008
0.200079
0.199195
0.198354
0.197552
0.196786
0.196051
0.19534
0.194646
0.193959
0.193268
0.192562
0.191826
0.191045
0.190201
0.189275
0.188246
0.187089
0.185774
0.184269
0.18253
0.180508
0.178141
0.175353
0.172051
0.168122
0.163432
0.157815
0.151077
0.142982
0.133238
0.121519
0.107472
0.209619
0.208493
0.207021
0.205482
0.203998
0.202581
0.201229
0.199945
0.198725
0.197566
0.196463
0.195411
0.194406
0.193442
0.192517
0.191629
0.190772
0.189944
0.18914
0.188353
0.187574
0.186795
0.186003
0.185187
0.184331
0.18342
0.182434
0.181353
0.180154
0.178811
0.177294
0.175566
0.173584
0.171296
0.168637
0.16553
0.161878
0.157565
0.152451
0.146367
0.139114
0.13045
0.12008
0.10767
0.0928685
0.202747
0.201669
0.20026
0.198779
0.197343
0.195961
0.194636
0.193367
0.192155
0.190995
0.189884
0.188815
0.187785
0.18679
0.185827
0.184893
0.183985
0.183097
0.182226
0.181364
0.180503
0.179633
0.178744
0.177822
0.176853
0.175819
0.1747
0.173476
0.172123
0.170615
0.168919
0.167001
0.164815
0.16231
0.15942
0.156068
0.152156
0.147567
0.142161
0.135769
0.128192
0.119188
0.108466
0.0956951
0.0805267
0.19583
0.194799
0.193453
0.192032
0.190644
0.189301
0.188004
0.186755
0.185554
0.184397
0.183279
0.182197
0.181147
0.180124
0.179126
0.178149
0.177192
0.176248
0.175313
0.174379
0.173439
0.172483
0.171501
0.170478
0.169401
0.168252
0.167012
0.165658
0.164168
0.162514
0.160666
0.158589
0.156238
0.153563
0.1505
0.146972
0.142883
0.13812
0.132544
0.12599
0.118261
0.109125
0.0982944
0.0854554
0.0702785
0.188875
0.187889
0.186605
0.185243
0.183905
0.182602
0.181336
0.18011
0.178922
0.177771
0.176651
0.17556
0.174492
0.173444
0.172415
0.1714
0.170397
0.169401
0.168406
0.167404
0.16639
0.165352
0.164282
0.163166
0.161989
0.160734
0.159382
0.157912
0.156301
0.154523
0.152548
0.150341
0.147862
0.145061
0.141877
0.138236
0.134047
0.129199
0.123561
0.116972
0.109243
0.10015
0.0894243
0.0767719
0.0618923
0.181889
0.180946
0.179722
0.178418
0.17713
0.175868
0.174635
0.173433
0.172262
0.17112
0.170002
0.168904
0.167823
0.166755
0.165699
0.16465
0.163606
0.162562
0.161511
0.160447
0.159363
0.15825
0.157098
0.155896
0.154627
0.153276
0.151825
0.150252
0.148537
0.146653
0.144574
0.142267
0.139693
0.136804
0.133545
0.129846
0.125621
0.120766
0.115156
0.108638
0.101034
0.0921338
0.0816877
0.0694285
0.0550905
0.174879
0.173976
0.172809
0.171562
0.170324
0.169104
0.167905
0.16673
0.165578
0.164447
0.163334
0.162234
0.161144
0.160061
0.158982
0.157905
0.156825
0.155736
0.154635
0.153514
0.152367
0.151185
0.14996
0.148679
0.147327
0.145891
0.144351
0.14269
0.140886
0.138916
0.136755
0.134371
0.13173
0.128787
0.125492
0.12178
0.117572
0.112773
0.107262
0.100899
0.0935193
0.0849282
0.0748968
0.0631868
0.0495701
0.167851
0.166985
0.165873
0.164681
0.163491
0.162314
0.16115
0.160004
0.158873
0.157758
0.156652
0.155554
0.15446
0.153367
0.152271
0.151169
0.150058
0.148932
0.147786
0.146614
0.145411
0.144168
0.142876
0.141525
0.1401
0.138588
0.136973
0.135236
0.133358
0.131319
0.129094
0.126656
0.123972
0.121003
0.117702
0.114013
0.109863
0.105165
0.0998082
0.0936636
0.0865802
0.0783807
0.0688578
0.0578026
0.0450243
0.160813
0.159981
0.158921
0.157781
0.15664
0.155504
0.154377
0.15326
0.152154
0.151056
0.149962
0.148871
0.147777
0.146678
0.14557
0.14445
0.143313
0.142155
0.140971
0.139756
0.138503
0.137207
0.135857
0.134445
0.132957
0.13138
0.1297
0.1279
0.125963
0.123869
0.121597
0.119122
0.116415
0.113441
0.110158
0.106518
0.102455
0.0978893
0.0927232
0.086839
0.0800994
0.0723438
0.0633861
0.053045
0.041163
0.153772
0.152972
0.151959
0.15087
0.149775
0.148681
0.14759
0.146505
0.145424
0.144347
0.14327
0.142189
0.1411
0.14
0.138885
0.137753
0.136597
0.135414
0.134199
0.132947
0.131654
0.130312
0.128913
0.127448
0.125907
0.124276
0.122542
0.120692
0.118707
0.116572
0.114267
0.111769
0.109054
0.106091
0.102844
0.0992696
0.0953108
0.0908972
0.0859423
0.0803414
0.0739701
0.0666838
0.0583166
0.0487106
0.0377322
0.146734
0.145962
0.144995
0.143953
0.142903
0.14185
0.140796
0.139743
0.138691
0.137638
0.13658
0.135513
0.134434
0.133338
0.132223
0.131083
0.129915
0.128714
0.127476
0.126196
0.124869
0.12349
0.122051
0.120544
0.118959
0.117285
0.115509
0.113618
0.111598
0.109433
0.107107
0.104599
0.101887
0.0989466
0.095746
0.0922472
0.0884016
0.0841478
0.0794108
0.0740988
0.0681006
0.0612867
0.0535097
0.0446299
0.0345258
0.139704
0.138959
0.138033
0.137037
0.13603
0.135018
0.134001
0.132982
0.13196
0.130934
0.129898
0.12885
0.127785
0.126699
0.125588
0.124448
0.123275
0.122063
0.120809
0.119509
0.118158
0.116751
0.115281
0.113742
0.112123
0.110415
0.108607
0.106686
0.104641
0.102457
0.100119
0.0976107
0.0949121
0.0920018
0.0888537
0.0854353
0.0817049
0.0776104
0.073087
0.0680555
0.0624187
0.0560618
0.048854
0.040669
0.0313852
0.132689
0.131968
0.131082
0.130128
0.129163
0.12819
0.127211
0.126227
0.125238
0.124241
0.123231
0.122205
0.121159
0.120088
0.118987
0.117853
0.11668
0.115465
0.114203
0.112891
0.111525
0.110099
0.108609
0.107046
0.105404
0.103673
0.101842
0.0999025
0.097842
0.0956487
0.093309
0.0908082
0.0881298
0.0852555
0.0821632
0.0788256
0.0752078
0.0712655
0.066944
0.0621752
0.0568755
0.0509456
0.0442703
0.0367308
0.0281961
0.125692
0.124995
0.124144
0.123231
0.122306
0.121373
0.120433
0.119486
0.118531
0.117565
0.116585
0.115585
0.114562
0.11351
0.112425
0.111302
0.110137
0.108926
0.107664
0.106349
0.104976
0.103541
0.102039
0.100463
0.0988075
0.0970628
0.0952206
0.0932717
0.0912061
0.0890129
0.0866803
0.0841952
0.0815435
0.0787096
0.075675
0.0724168
0.0689058
0.0651054
0.0609696
0.0564406
0.0514471
0.0459043
0.0397127
0.0327586
0.0248937
0.118719
0.118043
0.117227
0.116352
0.115467
0.114573
0.113672
0.112763
0.111844
0.110913
0.109965
0.108995
0.107998
0.10697
0.105906
0.104801
0.103651
0.10245
0.101196
0.0998851
0.0985141
0.0970792
0.0955753
0.0939969
0.0923375
0.0905898
0.0887462
0.0867985
0.084738
0.0825547
0.0802382
0.0777768
0.0751583
0.0723692
0.0693938
0.0662131
0.0628029
0.059133
0.0551653
0.0508513
0.0461309
0.0409321
0.0351706
0.0287365
0.021464
0.111772
0.111117
0.110333
0.109495
0.108649
0.107795
0.106934
0.106064
0.105184
0.10429
0.103377
0.102439
0.101473
0.100474
0.0994358
0.0983542
0.097224
0.096041
0.0948019
0.0935037
0.0921435
0.0907175
0.0892212
0.0876496
0.0859969
0.0842567
0.0824224
0.0804868
0.0784418
0.0762786
0.0739875
0.0715582
0.0689799
0.0662409
0.0633275
0.0602239
0.05691
0.053361
0.0495453
0.0454229
0.0409437
0.0360476
0.0306631
0.0246856
0.017939
0.104854
0.104218
0.103466
0.102665
0.101857
0.101044
0.100224
0.0993952
0.0985554
0.0977001
0.0968244
0.0959233
0.0949917
0.0940248
0.0930174
0.0919642
0.0908602
0.0897013
0.0884845
0.0872069
0.0858658
0.0844577
0.0829785
0.0814237
0.0797879
0.078066
0.0762518
0.0743392
0.0723206
0.0701881
0.0679326
0.0655448
0.063015
0.0603327
0.0574862
0.0544618
0.0512429
0.0478087
0.0441333
0.0401838
0.0359188
0.0312883
0.0262325
0.0206536
0.0143777
0.0979669
0.0973503
0.096629
0.0958651
0.0950972
0.0943252
0.0935468
0.0927601
0.0919619
0.0911476
0.0903119
0.0894497
0.0885559
0.0876254
0.0866529
0.085633
0.0845609
0.0834326
0.0822452
0.0809961
0.0796825
0.0783012
0.0768485
0.0753201
0.0737118
0.0720188
0.0702359
0.0683574
0.0663766
0.0642858
0.0620768
0.0597411
0.0572697
0.0546531
0.0518809
0.0489412
0.0458199
0.0424994
0.0389584
0.0351694
0.0310986
0.0267047
0.0219378
0.0167102
0.0108602
0.0911122
0.0905168
0.0898279
0.0891017
0.0883735
0.0876428
0.0869065
0.0861625
0.085407
0.084635
0.0838413
0.0830204
0.0821673
0.0812767
0.0803432
0.0793615
0.0783269
0.0772356
0.0760846
0.0748716
0.0735938
0.0722481
0.0708312
0.0693393
0.0677688
0.0661155
0.064375
0.0625422
0.0606107
0.0585734
0.0564228
0.0541509
0.0517495
0.0492096
0.0465219
0.0436758
0.0406588
0.0374561
0.0340494
0.0304162
0.0265288
0.0223533
0.0178479
0.0129364
0.00747752
0.0842929
0.0837223
0.0830676
0.0823793
0.0816906
0.0810007
0.0803063
0.0796049
0.0788924
0.0781638
0.0774133
0.0766357
0.0758259
0.0749785
0.0740881
0.0731494
0.0721577
0.0711095
0.070002
0.0688326
0.0675987
0.0662974
0.0649255
0.06348
0.0619576
0.060355
0.0586683
0.0568927
0.0550225
0.0530511
0.0509715
0.0487763
0.0464577
0.0440075
0.0414168
0.038676
0.035774
0.0326977
0.0294317
0.0259572
0.0222514
0.0182869
0.0140293
0.00941428
0.00432469
0.0775123
0.0769719
0.0763531
0.0757024
0.075052
0.0744014
0.0737477
0.0730882
0.0724185
0.0717334
0.0710273
0.0702949
0.0695308
0.0687297
0.0678861
0.0669947
0.0660512
0.0650521
0.0639947
0.0628764
0.0616944
0.0604461
0.0591286
0.0577393
0.0562756
0.0547348
0.0531133
0.0514069
0.0496102
0.0477172
0.0457216
0.0436163
0.0413942
0.0390475
0.036568
0.0339465
0.0311729
0.0282359
0.0251224
0.0218165
0.0182994
0.0145488
0.0105369
0.00621263
0.00148323
0.070774
0.0702708
0.0696893
0.0690744
0.0684594
0.0678455
0.0672304
0.0666112
0.0659836
0.0653422
0.0646814
0.0639956
0.0632793
0.0625272
0.0617337
0.0608939
0.0600034
0.0590592
0.0580584
0.0569983
0.0558762
0.0546895
0.0534357
0.0521129
0.0507187
0.0492509
0.0477062
0.0460807
0.0443695
0.0425674
0.0406685
0.0386666
0.0365548
0.034326
0.0319724
0.0294855
0.0268561
0.0240744
0.021129
0.0180069
0.0146925
0.0111671
0.00740824
0.0033779
-0.000991528
0.0640833
0.0636241
0.0630793
0.0624957
0.0619114
0.0613302
0.0607505
0.0601698
0.0595834
0.0589858
0.058371
0.0577331
0.0570666
0.0563659
0.0556257
0.0548414
0.0540089
0.053125
0.052187
0.051192
0.0501375
0.0490212
0.0478409
0.0465948
0.0452809
0.0438972
0.0424405
0.0409074
0.0392936
0.0375946
0.0358051
0.0339195
0.0319317
0.029835
0.0276224
0.025286
0.0228177
0.0202089
0.0174499
0.0145295
0.0114349
0.00815108
0.00466016
0.000934053
-0.00307158
0.0574454
0.0570345
0.0565218
0.0559615
0.0554007
0.0548472
0.0542999
0.053756
0.0532103
0.0526567
0.0520887
0.0515002
0.0508854
0.0502388
0.0495552
0.0488302
0.0480602
0.0472419
0.0463727
0.0454498
0.0444709
0.0434338
0.0423366
0.0411774
0.0399544
0.0386654
0.0373078
0.0358783
0.0343734
0.0327892
0.0311213
0.0293648
0.0275143
0.0255638
0.0235069
0.0213367
0.0190461
0.0166275
0.014073
0.0113732
0.00851733
0.00549351
0.00228767
-0.00111979
-0.00475587
0.0508633
0.0504991
0.0500063
0.0494566
0.0489109
0.0483804
0.0478636
0.0473561
0.0468519
0.0463436
0.0458242
0.0452873
0.0447267
0.0441371
0.0435135
0.0428518
0.0421487
0.0414013
0.0406071
0.0397634
0.038868
0.0379189
0.0369139
0.0358513
0.0347292
0.0335454
0.0322975
0.0309827
0.0295981
0.0281405
0.0266062
0.0249911
0.0232905
0.0214994
0.0196121
0.0176227
0.0155252
0.013313
0.0109794
0.00851683
0.00591702
0.00317041
0.00026648
-0.00280768
-0.0060678
0.044336
0.0440022
0.0435065
0.0429507
0.0424123
0.0419034
0.0414188
0.0409509
0.0404916
0.0400322
0.0395648
0.0390827
0.0385797
0.0380504
0.0374906
0.0368965
0.0362652
0.0355943
0.0348811
0.0341235
0.0333192
0.0324661
0.0315621
0.0306053
0.0295937
0.0285253
0.0273977
0.0262086
0.0249556
0.0236362
0.0222472
0.0207855
0.019247
0.0176276
0.0159224
0.0141266
0.0122351
0.0102427
0.00814387
0.00593244
0.00360219
0.00114627
-0.00144248
-0.00417203
-0.00705039
0.0378486
0.0374921
0.036964
0.0363891
0.035858
0.0353777
0.0349348
0.0345161
0.0341099
0.0337062
0.0332963
0.0328736
0.0324322
0.0319674
0.0314756
0.0309537
0.0303993
0.0298102
0.0291842
0.0285191
0.0278128
0.0270633
0.0262684
0.025426
0.0245343
0.023591
0.0225942
0.0215418
0.0204318
0.0192619
0.0180299
0.0167328
0.0153677
0.0139313
0.0124196
0.0108286
0.00915416
0.00739212
0.00553829
0.00358829
0.00153723
-0.000619059
-0.002885
-0.00526459
-0.00776047
0.0313896
0.030867
0.0302709
0.0296821
0.0291795
0.0287535
0.0283763
0.028026
0.0276873
0.0273495
0.0270046
0.0266469
0.026272
0.0258763
0.025457
0.025012
0.0245394
0.0240374
0.0235041
0.0229376
0.0223359
0.0216969
0.0210186
0.0202989
0.0195357
0.0187271
0.0178711
0.0169658
0.0160093
0.015
0.0139359
0.012815
0.0116346
0.0103919
0.00908368
0.00770692
0.00625856
0.00473557
0.00313467
0.00145268
-0.000313369
-0.00216621
-0.00410811
-0.00613912
-0.00825802
0.0250995
0.0240651
0.0233136
0.0227247
0.0222979
0.0219774
0.0217082
0.0214564
0.0212053
0.0209462
0.0206748
0.0203883
0.0200848
0.0197625
0.0194203
0.0190567
0.0186708
0.018261
0.0178259
0.0173638
0.0168728
0.0163509
0.0157962
0.0152066
0.0145802
0.013915
0.013209
0.0124606
0.0116683
0.0108305
0.0099456
0.00901163
0.00802641
0.00698756
0.00589272
0.00473951
0.00352557
0.00224872
0.000907051
-0.000501915
-0.00198
-0.00352867
-0.00514874
-0.00683802
-0.00859235
0.0192046
0.0171145
0.0160529
0.0154652
0.0151774
0.0150298
0.0149186
0.0147972
0.0146517
0.0144817
0.0142898
0.0140788
0.0138504
0.0136055
0.0133445
0.0130671
0.0127728
0.0124605
0.012129
0.0117769
0.0114024
0.011004
0.0105797
0.0101276
0.0096457
0.00913214
0.00858523
0.00800347
0.00738541
0.00672958
0.00603444
0.0052983
0.00451917
0.00369494
0.00282363
0.00190352
0.00093301
-8.95052e-05
-0.00116543
-0.00229607
-0.0034831
-0.00472702
-0.00602766
-0.00738229
-0.00878508
0.0125052
0.00933644
0.00787615
0.00771274
0.00789479
0.00805272
0.00813342
0.0081447
0.00809857
0.00800955
0.00789089
0.00775171
0.00759739
0.00743079
0.00725326
0.00706518
0.00686619
0.00665549
0.00643202
0.00619456
0.00594173
0.00567186
0.00538315
0.00507377
0.00474199
0.00438623
0.00400497
0.00359679
0.00316028
0.0026941
0.00219685
0.00166687
0.00110217
0.000500914
-0.000138413
-0.000817143
-0.00153656
-0.00229773
-0.00310205
-0.00395066
-0.00484443
-0.00578367
-0.0067681
-0.00779548
-0.00886006
0.00167204
-0.00285563
-0.00462339
-0.00168312
0.000391307
0.00124266
0.00156355
0.00168336
0.00170188
0.00166424
0.00159791
0.00151761
0.00143018
0.00133846
0.00124339
0.00114494
0.00104247
0.000935039
0.000821539
0.000700702
0.000571086
0.00043111
0.000279169
0.000113722
-6.67193e-05
-0.000263607
-0.000478294
-0.000711989
-0.000965868
-0.00124119
-0.00153935
-0.00186194
-0.00221067
-0.00258708
-0.00299237
-0.00342765
-0.0038944
-0.00439401
-0.00492737
-0.00549577
-0.00610016
-0.00674127
-0.00741921
-0.00813305
-0.00887953
0.0064849
-0.02198
-0.0237728
-0.0133
-0.00857323
-0.00688866
-0.00615917
-0.00580276
-0.00563874
-0.0055705
-0.00554453
-0.00553479
-0.00552941
-0.00552322
-0.00551422
-0.00550199
-0.00548697
-0.00547001
-0.00545215
-0.00543457
-0.00541849
-0.00540515
-0.00539577
-0.00539155
-0.00539363
-0.00540303
-0.00542064
-0.00544737
-0.00548419
-0.00553204
-0.00559177
-0.00566441
-0.00575118
-0.00585318
-0.00597127
-0.00610619
-0.00625887
-0.00643075
-0.0066229
-0.00683598
-0.00707135
-0.00732976
-0.007612
-0.00791853
-0.0082484
)
;

boundaryField
{
    leftWall
    {
        type            fixedFluxPressure;
        gradient        uniform 0;
        value           nonuniform List<scalar> 
42
(
0.274873
0.268649
0.262364
0.256013
0.249592
0.243099
0.236535
0.229901
0.223201
0.216439
0.209619
0.202747
0.19583
0.188875
0.181889
0.174879
0.167851
0.160813
0.153772
0.146734
0.139704
0.132689
0.125692
0.118719
0.111772
0.104854
0.0979669
0.0911122
0.0842929
0.0775123
0.070774
0.0640833
0.0574454
0.0508633
0.044336
0.0378486
0.0313896
0.0250995
0.0192046
0.0125052
0.00167204
0.0064849
)
;
    }
    rightWall
    {
        type            fixedFluxPressure;
        gradient        nonuniform 0();
        value           nonuniform 0();
    }
    lowerWall
    {
        type            fixedFluxPressure;
        gradient        nonuniform 0();
        value           nonuniform 0();
    }
    atmosphere
    {
        type            totalPressure;
        rho             rho;
        psi             none;
        gamma           1;
        p0              uniform 0;
        value           nonuniform List<scalar> 
45
(
-7.30177e-05
-0.00790666
-0.0100021
-0.0102989
-0.0103235
-0.0102644
-0.0101857
-0.0101088
-0.0100381
-0.00997172
-0.0099064
-0.0098391
-0.00976763
-0.00969065
-0.00960753
-0.00951825
-0.00942317
-0.00932293
-0.00921833
-0.00911022
-0.00899951
-0.00888708
-0.00877376
-0.00866037
-0.00854766
-0.00843634
-0.00832709
-0.00822054
-0.00811732
-0.00801798
-0.00792308
-0.00783314
-0.00774867
-0.00767016
-0.0075981
-0.00753296
-0.00747521
-0.00742534
-0.00738383
-0.00735116
-0.00732783
-0.0073143
-0.00731105
-0.00731853
-0.0073372
)
;
    }
    defaultFaces
    {
        type            empty;
    }
    procBoundary2to0
    {
        type            processor;
        value           nonuniform List<scalar> 
46
(
0.272887
0.273067
0.273357
0.273766
0.274306
0.274997
0.27586
0.276921
0.278209
0.279758
0.281608
0.2838
0.286384
0.289416
0.292962
0.297093
0.301885
0.307424
0.3138
0.321112
0.329465
0.338968
0.349735
0.36185
0.37535
0.281044
0.279721
0.278053
0.276419
0.274944
0.273617
0.272425
0.271358
0.270404
0.269555
0.268801
0.268135
0.267548
0.267036
0.266595
0.266227
0.265932
0.265711
0.265567
0.265505
0.265505
)
;
    }
    procBoundary2to3
    {
        type            processor;
        value           nonuniform List<scalar> 
43
(
0.361579
0.331393
0.300335
0.269065
0.238216
0.208381
0.180104
0.15386
0.13003
0.108887
0.0905866
0.0751464
0.0624457
0.0522688
0.0443254
0.0382628
0.033689
0.0302121
0.0274734
0.0251585
0.0230047
0.0208175
0.0184776
0.0159292
0.0131653
0.0102281
0.00720455
0.00420138
0.00131996
-0.00135302
-0.00374129
-0.00577988
-0.007425
-0.00866811
-0.00953557
-0.0100799
-0.0103665
-0.0104608
-0.0104122
-0.0102387
-0.00996337
-0.00965934
-0.00860294
)
;
    }
}


// ************************************************************************* //
