/*--------------------------------*- C++ -*----------------------------------*\
| =========                 |                                                 |
| \\      /  F ield         | OpenFOAM: The Open Source CFD Toolbox           |
|  \\    /   O peration     | Version:  5.0                                   |
|   \\  /    A nd           | Web:      www.OpenFOAM.org                      |
|    \\/     M anipulation  |                                                 |
\*---------------------------------------------------------------------------*/
FoamFile
{
    version     2.0;
    format      ascii;
    class       surfaceScalarField;
    location    "0.6";
    object      phi;
}
// * * * * * * * * * * * * * * * * * * * * * * * * * * * * * * * * * * * * * //

dimensions      [0 3 -1 0 0 0 0];

internalField   nonuniform List<scalar> 
3742
(
-4.01684e-06
-1.50873e-05
-3.86989e-06
-1.41463e-05
-3.69484e-06
-1.31707e-05
-3.49298e-06
-1.21595e-05
-3.26598e-06
-1.11115e-05
-3.01595e-06
-1.00248e-05
-2.74554e-06
-8.89689e-06
-2.45807e-06
-7.72447e-06
-2.15759e-06
-6.5034e-06
-1.8491e-06
-5.22842e-06
-1.53867e-06
-3.8931e-06
-1.23364e-06
-2.48965e-06
-9.428e-07
-1.00884e-06
-6.76597e-07
5.60062e-07
-4.4727e-07
2.2295e-06
-2.69138e-07
4.01401e-06
-1.58815e-07
5.92987e-06
-1.35412e-07
7.99492e-06
-2.20715e-07
1.02283e-05
-4.39286e-07
1.265e-05
-8.18439e-07
1.52807e-05
-1.38817e-06
1.81405e-05
-2.181e-06
2.1249e-05
-3.23179e-06
2.46234e-05
2.82784e-05
-4.8036e-07
-2.1722e-05
-9.67196e-07
-2.37618e-05
-1.43528e-06
-2.42799e-05
-1.87877e-06
-2.44045e-05
-2.29507e-06
-2.43488e-05
-2.68267e-06
-2.41802e-05
-3.04063e-06
-2.39276e-05
-3.36834e-06
-2.36057e-05
-3.66536e-06
-2.32232e-05
-3.9314e-06
-2.27858e-05
-4.16626e-06
-2.22978e-05
-4.36975e-06
-2.17626e-05
-4.54178e-06
-2.1183e-05
-4.68226e-06
-2.05614e-05
-4.79113e-06
-1.98998e-05
-4.86838e-06
-1.92001e-05
-4.91407e-06
-1.84635e-05
-4.92831e-06
-1.76912e-05
-4.91131e-06
-1.68839e-05
-4.86337e-06
-1.60421e-05
-4.78494e-06
-1.51657e-05
-4.67667e-06
-1.42546e-05
-4.53943e-06
-1.33079e-05
-4.37437e-06
-1.23246e-05
-4.18297e-06
-1.13029e-05
-3.96713e-06
-1.02407e-05
-3.72926e-06
-9.13477e-06
-3.47235e-06
-7.9814e-06
-3.20013e-06
-6.77563e-06
-2.91719e-06
-5.51136e-06
-2.62918e-06
-4.1811e-06
-2.34296e-06
-2.77586e-06
-2.06683e-06
-1.28496e-06
-1.81072e-06
3.03958e-07
-1.58638e-06
2.00516e-06
-1.40761e-06
3.83525e-06
-1.29057e-06
5.81283e-06
-1.25398e-06
7.95832e-06
-1.31929e-06
1.02936e-05
-1.51084e-06
1.28416e-05
-1.85589e-06
1.56257e-05
-2.38456e-06
1.86692e-05
-3.12966e-06
2.19941e-05
-4.12642e-06
2.56202e-05
2.95639e-05
-4.96471e-07
-2.12255e-05
-1.00194e-06
-2.32563e-05
-1.49142e-06
-2.37904e-05
-1.95894e-06
-2.3937e-05
-2.40169e-06
-2.3906e-05
-2.81792e-06
-2.3764e-05
-3.20642e-06
-2.35392e-05
-3.56633e-06
-2.32459e-05
-3.89694e-06
-2.28926e-05
-4.19773e-06
-2.2485e-05
-4.46825e-06
-2.20273e-05
-4.70813e-06
-2.15227e-05
-4.91708e-06
-2.0974e-05
-5.09485e-06
-2.03836e-05
-5.24122e-06
-1.97534e-05
-5.35608e-06
-1.90852e-05
-5.43932e-06
-1.83802e-05
-5.49096e-06
-1.76396e-05
-5.51108e-06
-1.68638e-05
-5.4999e-06
-1.60533e-05
-5.45774e-06
-1.52079e-05
-5.38512e-06
-1.43272e-05
-5.28278e-06
-1.34102e-05
-5.1517e-06
-1.24557e-05
-4.99319e-06
-1.14614e-05
-4.80892e-06
-1.04249e-05
-4.60102e-06
-9.34267e-06
-4.3722e-06
-8.21022e-06
-4.12581e-06
-7.02201e-06
-3.86606e-06
-5.77111e-06
-3.59811e-06
-4.44905e-06
-3.32831e-06
-3.04565e-06
-3.06442e-06
-1.54885e-06
-2.81578e-06
5.53245e-08
-2.59357e-06
1.78296e-06
-2.41101e-06
3.65269e-06
-2.28366e-06
5.68548e-06
-2.2297e-06
7.90436e-06
-2.27012e-06
1.0334e-05
-2.42885e-06
1.30003e-05
-2.73285e-06
1.59297e-05
-3.21208e-06
1.91484e-05
-3.89929e-06
2.26813e-05
-4.82976e-06
2.65506e-05
3.07749e-05
-5.06122e-07
-2.07193e-05
-1.02425e-06
-2.27382e-05
-1.52945e-06
-2.32852e-05
-2.01552e-06
-2.34509e-05
-2.4794e-06
-2.34422e-05
-2.91908e-06
-2.33243e-05
-3.3331e-06
-2.31251e-05
-3.72029e-06
-2.28587e-05
-4.07972e-06
-2.25332e-05
-4.4106e-06
-2.21542e-05
-4.71225e-06
-2.17256e-05
-4.98409e-06
-2.12508e-05
-5.22565e-06
-2.07325e-05
-5.43648e-06
-2.01728e-05
-5.61624e-06
-1.95737e-05
-5.76465e-06
-1.89368e-05
-5.88151e-06
-1.82634e-05
-5.96669e-06
-1.75544e-05
-6.02017e-06
-1.68103e-05
-6.04204e-06
-1.60314e-05
-6.03253e-06
-1.52174e-05
-5.99202e-06
-1.43677e-05
-5.92111e-06
-1.34812e-05
-5.82063e-06
-1.25561e-05
-5.69168e-06
-1.15904e-05
-5.53572e-06
-1.05809e-05
-5.35461e-06
-9.52377e-06
-5.15073e-06
-8.4141e-06
-4.92709e-06
-7.24565e-06
-4.68745e-06
-6.01076e-06
-4.43647e-06
-4.70002e-06
-4.17998e-06
-3.30214e-06
-3.9251e-06
-1.80373e-06
-3.68055e-06
-1.89223e-07
-3.45684e-06
1.55925e-06
-3.26647e-06
3.46232e-06
-3.12432e-06
5.54333e-06
-3.04787e-06
7.82789e-06
-3.05741e-06
1.03435e-05
-3.17626e-06
1.31191e-05
-3.43079e-06
1.61842e-05
-3.85043e-06
1.9568e-05
-4.46743e-06
2.32983e-05
-5.31658e-06
2.73998e-05
3.1893e-05
-5.10126e-07
-2.02092e-05
-1.0355e-06
-2.22128e-05
-1.55111e-06
-2.27696e-05
-2.05053e-06
-2.29515e-05
-2.53041e-06
-2.29623e-05
-2.9885e-06
-2.28662e-05
-3.42304e-06
-2.26906e-05
-3.83262e-06
-2.24491e-05
-4.21604e-06
-2.21498e-05
-4.57226e-06
-2.17979e-05
-4.90039e-06
-2.13975e-05
-5.19963e-06
-2.09516e-05
-5.46929e-06
-2.04628e-05
-5.70878e-06
-1.99333e-05
-5.91759e-06
-1.93649e-05
-6.09529e-06
-1.87591e-05
-6.24154e-06
-1.81172e-05
-6.35612e-06
-1.74398e-05
-6.43888e-06
-1.67276e-05
-6.48979e-06
-1.59805e-05
-6.50896e-06
-1.51982e-05
-6.49666e-06
-1.438e-05
-6.45334e-06
-1.35245e-05
-6.37965e-06
-1.26298e-05
-6.27652e-06
-1.16935e-05
-6.14517e-06
-1.07122e-05
-5.98719e-06
-9.68175e-06
-5.80464e-06
-8.59665e-06
-5.60013e-06
-7.45016e-06
-5.37698e-06
-6.23391e-06
-5.13935e-06
-4.93765e-06
-4.89245e-06
-3.54904e-06
-4.64275e-06
-2.05342e-06
-4.39824e-06
-4.33728e-07
-4.16866e-06
1.32967e-06
-3.96571e-06
3.25938e-06
-3.80339e-06
5.38101e-06
-3.69828e-06
7.72278e-06
-3.66978e-06
1.0315e-05
-3.74026e-06
1.31896e-05
-3.93519e-06
1.63791e-05
-4.28299e-06
1.99158e-05
-4.8149e-06
2.38302e-05
-5.56456e-06
2.81495e-05
3.28958e-05
-5.09298e-07
-1.96999e-05
-1.03708e-06
-2.1685e-05
-1.55827e-06
-2.22484e-05
-2.06617e-06
-2.24436e-05
-2.55719e-06
-2.24712e-05
-3.02883e-06
-2.23946e-05
-3.47906e-06
-2.22404e-05
-3.90623e-06
-2.20219e-05
-4.30887e-06
-2.17471e-05
-4.68573e-06
-2.14211e-05
-5.03567e-06
-2.10476e-05
-5.35769e-06
-2.06296e-05
-5.65092e-06
-2.01696e-05
-5.91457e-06
-1.96696e-05
-6.14797e-06
-1.91315e-05
-6.35057e-06
-1.85565e-05
-6.5219e-06
-1.79459e-05
-6.66159e-06
-1.73002e-05
-6.76939e-06
-1.66198e-05
-6.84516e-06
-1.59048e-05
-6.88888e-06
-1.51545e-05
-6.90069e-06
-1.43682e-05
-6.88089e-06
-1.35443e-05
-6.82998e-06
-1.26807e-05
-6.74867e-06
-1.17748e-05
-6.63797e-06
-1.08229e-05
-6.49917e-06
-9.82055e-06
-6.33402e-06
-8.76181e-06
-6.14471e-06
-7.63947e-06
-5.93409e-06
-6.44452e-06
-5.70578e-06
-5.16596e-06
-5.46434e-06
-3.79048e-06
-5.21552e-06
-2.30224e-06
-4.96649e-06
-6.82756e-07
-4.7261e-06
1.08929e-06
-4.50509e-06
3.03837e-06
-4.31641e-06
5.19232e-06
-4.1755e-06
7.58187e-06
-4.10058e-06
1.02401e-05
-4.11274e-06
1.32018e-05
-4.23608e-06
1.65025e-05
-4.49753e-06
2.01773e-05
-4.92668e-06
2.42593e-05
-5.55529e-06
2.87781e-05
3.37572e-05
-5.04429e-07
-1.91955e-05
-1.03039e-06
-2.11591e-05
-1.5528e-06
-2.1726e-05
-2.06472e-06
-2.19317e-05
-2.56236e-06
-2.19736e-05
-3.04296e-06
-2.1914e-05
-3.50429e-06
-2.1779e-05
-3.94442e-06
-2.15818e-05
-4.36169e-06
-2.13298e-05
-4.75458e-06
-2.10282e-05
-5.12177e-06
-2.06804e-05
-5.46203e-06
-2.02893e-05
-5.77431e-06
-1.98573e-05
-6.05765e-06
-1.93863e-05
-6.31124e-06
-1.88779e-05
-6.53437e-06
-1.83334e-05
-6.72643e-06
-1.77538e-05
-6.88695e-06
-1.71397e-05
-7.01554e-06
-1.64912e-05
-7.11195e-06
-1.58084e-05
-7.17604e-06
-1.50904e-05
-7.20782e-06
-1.43364e-05
-7.20744e-06
-1.35446e-05
-7.17521e-06
-1.27129e-05
-7.11167e-06
-1.18383e-05
-7.01756e-06
-1.09171e-05
-6.8939e-06
-9.9442e-06
-6.74209e-06
-8.91363e-06
-6.5639e-06
-7.81765e-06
-6.3617e-06
-6.64673e-06
-6.13849e-06
-5.38917e-06
-5.89816e-06
-4.03082e-06
-5.64564e-06
-2.55477e-06
-5.38718e-06
-9.41213e-07
-5.13061e-06
8.32729e-07
-4.88553e-06
2.79329e-06
-4.66362e-06
4.9704e-06
-4.47891e-06
7.39716e-06
-4.34809e-06
1.01093e-05
-4.29057e-06
1.31443e-05
-4.32856e-06
1.65405e-05
-4.48693e-06
2.03356e-05
-4.7929e-06
2.45653e-05
-5.27551e-06
2.92606e-05
3.44465e-05
-4.96291e-07
-1.86992e-05
-1.01682e-06
-2.06386e-05
-1.53659e-06
-2.12062e-05
-2.04853e-06
-2.14198e-05
-2.54863e-06
-2.14735e-05
-3.03396e-06
-2.14287e-05
-3.50207e-06
-2.13109e-05
-3.95082e-06
-2.1133e-05
-4.37832e-06
-2.09023e-05
-4.78286e-06
-2.06236e-05
-5.16289e-06
-2.03004e-05
-5.51701e-06
-1.99352e-05
-5.84398e-06
-1.95303e-05
-6.14268e-06
-1.90876e-05
-6.41215e-06
-1.86084e-05
-6.65154e-06
-1.8094e-05
-6.86011e-06
-1.75452e-05
-7.03726e-06
-1.69625e-05
-7.1825e-06
-1.6346e-05
-7.29544e-06
-1.56954e-05
-7.37583e-06
-1.501e-05
-7.42353e-06
-1.42887e-05
-7.43854e-06
-1.35296e-05
-7.42101e-06
-1.27305e-05
-7.37124e-06
-1.18881e-05
-7.28975e-06
-1.09986e-05
-7.17726e-06
-1.00567e-05
-7.03478e-06
-9.05611e-06
-6.86369e-06
-7.98875e-06
-6.66579e-06
-6.84463e-06
-6.44348e-06
-5.6115e-06
-6.19985e-06
-4.27445e-06
-5.93897e-06
-2.81566e-06
-5.66604e-06
-1.21414e-06
-5.38771e-06
5.54405e-07
-5.11224e-06
2.51782e-06
-4.84976e-06
4.70793e-06
-4.61262e-06
7.16002e-06
-4.41555e-06
9.91219e-06
-4.27581e-06
1.30045e-05
-4.21318e-06
1.64778e-05
-4.2498e-06
2.03722e-05
-4.40975e-06
2.47252e-05
-4.7185e-06
2.95694e-05
3.49299e-05
-4.85629e-07
-1.82136e-05
-9.9769e-07
-2.01265e-05
-1.5115e-06
-2.06924e-05
-2.01989e-06
-2.09114e-05
-2.51874e-06
-2.09747e-05
-3.00495e-06
-2.09425e-05
-3.47587e-06
-2.084e-05
-3.9292e-06
-2.06797e-05
-4.36284e-06
-2.04687e-05
-4.77489e-06
-2.02116e-05
-5.16361e-06
-1.99117e-05
-5.52744e-06
-1.95714e-05
-5.86495e-06
-1.91928e-05
-6.1749e-06
-1.87776e-05
-6.45615e-06
-1.83272e-05
-6.70773e-06
-1.78424e-05
-6.92879e-06
-1.73242e-05
-7.1186e-06
-1.67727e-05
-7.27654e-06
-1.61881e-05
-7.40211e-06
-1.55698e-05
-7.49492e-06
-1.49172e-05
-7.55471e-06
-1.42289e-05
-7.5813e-06
-1.3503e-05
-7.57467e-06
-1.27371e-05
-7.53491e-06
-1.19279e-05
-7.46227e-06
-1.10712e-05
-7.35717e-06
-1.01618e-05
-7.22025e-06
-9.19304e-06
-7.05241e-06
-8.15659e-06
-6.85491e-06
-7.04214e-06
-6.62943e-06
-5.83697e-06
-6.37828e-06
-4.5256e-06
-6.10451e-06
-3.08943e-06
-5.81216e-06
-1.50649e-06
-5.50651e-06
2.48762e-07
-5.19427e-06
2.20557e-06
-4.88375e-06
4.39741e-06
-4.58521e-06
6.86149e-06
-4.31103e-06
9.63802e-06
-4.0758e-06
1.27693e-05
-3.89626e-06
1.62983e-05
-3.79112e-06
2.02671e-05
-3.78055e-06
2.47147e-05
-3.88554e-06
2.96744e-05
3.51713e-05
-4.73127e-07
-1.77405e-05
-9.74259e-07
-1.96254e-05
-1.47929e-06
-2.01874e-05
-1.98106e-06
-2.04096e-05
-2.47538e-06
-2.04804e-05
-2.95901e-06
-2.04589e-05
-3.42918e-06
-2.03698e-05
-3.8834e-06
-2.02255e-05
-4.31943e-06
-2.00327e-05
-4.73517e-06
-1.97959e-05
-5.12874e-06
-1.95181e-05
-5.49841e-06
-1.92017e-05
-5.84261e-06
-1.88486e-05
-6.15994e-06
-1.84603e-05
-6.44916e-06
-1.80379e-05
-6.70915e-06
-1.75824e-05
-6.93895e-06
-1.70944e-05
-7.1377e-06
-1.65739e-05
-7.30467e-06
-1.60211e-05
-7.43925e-06
-1.54353e-05
-7.54091e-06
-1.48156e-05
-7.60924e-06
-1.41606e-05
-7.64391e-06
-1.34684e-05
-7.6447e-06
-1.27363e-05
-7.6115e-06
-1.19611e-05
-7.54427e-06
-1.11384e-05
-7.44312e-06
-1.0263e-05
-7.3083e-06
-9.32787e-06
-7.14021e-06
-8.32468e-06
-6.93952e-06
-7.24284e-06
-6.70719e-06
-6.06931e-06
-6.44461e-06
-4.78819e-06
-6.15375e-06
-3.38029e-06
-5.83735e-06
-1.82289e-06
-5.49913e-06
-8.94542e-08
-5.144e-06
1.85044e-06
-4.77816e-06
4.03157e-06
-4.4094e-06
6.49274e-06
-4.0473e-06
9.27591e-06
-3.70319e-06
1.24252e-05
-3.3902e-06
1.59853e-05
-3.12288e-06
1.99998e-05
-2.91672e-06
2.45085e-05
-2.78741e-06
2.95451e-05
3.51336e-05
-4.59378e-07
-1.72811e-05
-9.47655e-07
-1.91371e-05
-1.4416e-06
-1.96935e-05
-1.93416e-06
-1.99171e-05
-2.42112e-06
-1.99934e-05
-2.89917e-06
-1.99808e-05
-3.36542e-06
-1.99036e-05
-3.81725e-06
-1.97736e-05
-4.25226e-06
-1.95977e-05
-4.66824e-06
-1.93799e-05
-5.06315e-06
-1.91232e-05
-5.43512e-06
-1.88297e-05
-5.78247e-06
-1.85013e-05
-6.10367e-06
-1.81391e-05
-6.39735e-06
-1.77442e-05
-6.66229e-06
-1.73175e-05
-6.8974e-06
-1.68592e-05
-7.10172e-06
-1.63696e-05
-7.27441e-06
-1.58484e-05
-7.41471e-06
-1.5295e-05
-7.52199e-06
-1.47083e-05
-7.59568e-06
-1.40869e-05
-7.6353e-06
-1.34287e-05
-7.64042e-06
-1.27312e-05
-7.61071e-06
-1.19908e-05
-7.54586e-06
-1.12033e-05
-7.44564e-06
-1.03632e-05
-7.30988e-06
-9.46363e-06
-7.13849e-06
-8.49607e-06
-6.9315e-06
-7.44983e-06
-6.68909e-06
-6.31172e-06
-6.41169e-06
-5.06559e-06
-6.10008e-06
-3.69191e-06
-5.75555e-06
-2.16741e-06
-5.3801e-06
-4.64904e-07
-4.97659e-06
1.44692e-06
-4.54879e-06
3.60378e-06
-4.10168e-06
6.04563e-06
-3.64152e-06
8.81574e-06
-3.17591e-06
1.19596e-05
-2.71369e-06
1.55231e-05
-2.2646e-06
1.95507e-05
-1.83874e-06
2.40826e-05
-1.44579e-06
2.91521e-05
3.47818e-05
-4.44844e-07
-1.68363e-05
-9.18856e-07
-1.86632e-05
-1.3999e-06
-1.92125e-05
-1.88115e-06
-1.94359e-05
-2.3584e-06
-1.95162e-05
-2.8283e-06
-1.95109e-05
-3.28787e-06
-1.9444e-05
-3.73441e-06
-1.93271e-05
-4.16541e-06
-1.91667e-05
-4.57853e-06
-1.89668e-05
-4.97164e-06
-1.87301e-05
-5.34275e-06
-1.84586e-05
-5.69008e-06
-1.81539e-05
-6.01197e-06
-1.78172e-05
-6.30697e-06
-1.74492e-05
-6.57375e-06
-1.70507e-05
-6.81111e-06
-1.66219e-05
-7.01799e-06
-1.61627e-05
-7.19343e-06
-1.56729e-05
-7.33657e-06
-1.51518e-05
-7.44663e-06
-1.45982e-05
-7.52291e-06
-1.40106e-05
-7.56476e-06
-1.33869e-05
-7.57155e-06
-1.27244e-05
-7.54272e-06
-1.20196e-05
-7.47767e-06
-1.12683e-05
-7.37583e-06
-1.0465e-05
-7.2366e-06
-9.60286e-06
-7.05938e-06
-8.67329e-06
-6.84354e-06
-7.66568e-06
-6.58842e-06
-6.56684e-06
-6.29345e-06
-5.36057e-06
-5.95813e-06
-4.02723e-06
-5.58219e-06
-2.54335e-06
-5.16574e-06
-8.81363e-07
-4.70934e-06
9.90528e-07
-4.21411e-06
3.10854e-06
-3.68179e-06
5.51331e-06
-3.11495e-06
8.2489e-06
-2.51692e-06
1.13615e-05
-1.8917e-06
1.48978e-05
-1.24361e-06
1.89026e-05
-5.76731e-07
2.34158e-05
1.05873e-07
2.84695e-05
3.40845e-05
-4.29851e-07
-1.64064e-05
-8.88676e-07
-1.82043e-05
-1.35552e-06
-1.87456e-05
-1.82382e-06
-1.89676e-05
-2.28944e-06
-1.90506e-05
-2.74904e-06
-1.90513e-05
-3.19961e-06
-1.89935e-05
-3.63838e-06
-1.88884e-05
-4.06275e-06
-1.87423e-05
-4.47032e-06
-1.85592e-05
-4.85886e-06
-1.83415e-05
-5.22632e-06
-1.80911e-05
-5.5708e-06
-1.78094e-05
-5.89059e-06
-1.74973e-05
-6.18414e-06
-1.71557e-05
-6.45002e-06
-1.67848e-05
-6.68694e-06
-1.63849e-05
-6.89375e-06
-1.59559e-05
-7.06939e-06
-1.54973e-05
-7.21287e-06
-1.50083e-05
-7.3233e-06
-1.44878e-05
-7.39982e-06
-1.39341e-05
-7.44162e-06
-1.33451e-05
-7.44788e-06
-1.27181e-05
-7.41777e-06
-1.20498e-05
-7.35043e-06
-1.13357e-05
-7.24494e-06
-1.05705e-05
-7.10027e-06
-9.74753e-06
-6.91528e-06
-8.85829e-06
-6.68864e-06
-7.89231e-06
-6.4189e-06
-6.83658e-06
-6.10438e-06
-5.67509e-06
-5.74326e-06
-4.38834e-06
-5.33365e-06
-2.95297e-06
-4.87358e-06
-1.34144e-06
-4.36118e-06
4.7813e-07
-3.79464e-06
2.542e-06
-3.17223e-06
4.8909e-06
-2.49242e-06
7.56909e-06
-1.75384e-06
1.0623e-05
-9.55181e-07
1.40992e-05
-9.48259e-08
1.80422e-05
8.29587e-07
2.24913e-05
1.82193e-06
2.74771e-05
3.30179e-05
-4.14644e-07
-1.59918e-05
-8.57803e-07
-1.77612e-05
-1.30959e-06
-1.82939e-05
-1.76373e-06
-1.85134e-05
-2.21626e-06
-1.8598e-05
-2.66384e-06
-1.86038e-05
-3.10348e-06
-1.85538e-05
-3.53237e-06
-1.84595e-05
-3.94789e-06
-1.83268e-05
-4.34759e-06
-1.81595e-05
-4.72918e-06
-1.79599e-05
-5.09054e-06
-1.77297e-05
-5.42975e-06
-1.74702e-05
-5.74501e-06
-1.71821e-05
-6.03469e-06
-1.6866e-05
-6.29731e-06
-1.65222e-05
-6.5315e-06
-1.61507e-05
-6.73601e-06
-1.57514e-05
-6.90968e-06
-1.53236e-05
-7.05143e-06
-1.48666e-05
-7.16023e-06
-1.4379e-05
-7.23508e-06
-1.38592e-05
-7.275e-06
-1.33052e-05
-7.27896e-06
-1.27142e-05
-7.24592e-06
-1.20828e-05
-7.17472e-06
-1.14069e-05
-7.06408e-06
-1.06812e-05
-6.91256e-06
-9.89905e-06
-6.71845e-06
-9.05239e-06
-6.47979e-06
-8.13097e-06
-6.19424e-06
-7.12214e-06
-5.85906e-06
-6.01027e-06
-5.47108e-06
-4.77632e-06
-5.02669e-06
-3.39737e-06
-4.52183e-06
-1.84631e-06
-3.95205e-06
-9.16551e-08
-3.31246e-06
1.90241e-06
-2.59764e-06
4.17608e-06
-1.8017e-06
6.77315e-06
-9.18269e-07
9.73954e-06
5.96406e-08
1.31213e-05
1.13988e-06
1.6962e-05
2.33158e-06
2.12996e-05
3.64578e-06
2.6163e-05
3.15674e-05
-3.99483e-07
-1.55923e-05
-8.26849e-07
-1.73339e-05
-1.2631e-06
-1.78576e-05
-1.70229e-06
-1.80743e-05
-2.14062e-06
-1.81597e-05
-2.57484e-06
-1.81695e-05
-3.002e-06
-1.81267e-05
-3.4193e-06
-1.80422e-05
-3.82412e-06
-1.7922e-05
-4.21398e-06
-1.77696e-05
-4.58659e-06
-1.75873e-05
-4.9398e-06
-1.73765e-05
-5.27164e-06
-1.71383e-05
-5.5803e-06
-1.68734e-05
-5.86409e-06
-1.65822e-05
-6.12147e-06
-1.62648e-05
-6.351e-06
-1.59212e-05
-6.55135e-06
-1.5551e-05
-6.72129e-06
-1.51537e-05
-6.85962e-06
-1.47282e-05
-6.9652e-06
-1.42734e-05
-7.03689e-06
-1.37875e-05
-7.07354e-06
-1.32685e-05
-7.07393e-06
-1.27138e-05
-7.03677e-06
-1.212e-05
-6.96063e-06
-1.1483e-05
-6.8439e-06
-1.07979e-05
-6.68469e-06
-1.00583e-05
-6.48079e-06
-9.25629e-06
-6.22956e-06
-8.38221e-06
-5.92783e-06
-7.42387e-06
-5.57182e-06
-6.36629e-06
-5.15701e-06
-5.19114e-06
-4.6781e-06
-3.8763e-06
-4.12891e-06
-2.3955e-06
-3.50239e-06
-7.18182e-07
-2.79051e-06
1.19052e-06
-1.98407e-06
3.36964e-06
-1.07273e-06
5.86182e-06
-4.49485e-08
8.71176e-06
1.11209e-06
1.19642e-05
2.41263e-06
1.56614e-05
3.87264e-06
1.98396e-05
5.51027e-06
2.45253e-05
2.97312e-05
-3.84653e-07
-1.52077e-05
-7.96365e-07
-1.69222e-05
-1.21691e-06
-1.74371e-05
-1.64068e-06
-1.76505e-05
-2.06406e-06
-1.77363e-05
-2.48393e-06
-1.77497e-05
-2.89741e-06
-1.77132e-05
-3.30174e-06
-1.76378e-05
-3.69434e-06
-1.75294e-05
-4.07274e-06
-1.73912e-05
-4.43468e-06
-1.72253e-05
-4.77801e-06
-1.70332e-05
-5.10076e-06
-1.68156e-05
-5.40109e-06
-1.65731e-05
-5.6773e-06
-1.6306e-05
-5.92779e-06
-1.60143e-05
-6.1511e-06
-1.56979e-05
-6.34582e-06
-1.53563e-05
-6.51063e-06
-1.49889e-05
-6.64426e-06
-1.45946e-05
-6.74543e-06
-1.41722e-05
-6.81289e-06
-1.37201e-05
-6.8453e-06
-1.32361e-05
-6.84127e-06
-1.27178e-05
-6.79929e-06
-1.2162e-05
-6.71764e-06
-1.15647e-05
-6.59439e-06
-1.09211e-05
-6.42725e-06
-1.02254e-05
-6.21351e-06
-9.47003e-06
-5.94991e-06
-8.64582e-06
-5.63248e-06
-7.74131e-06
-5.25643e-06
-6.74234e-06
-4.816e-06
-5.63159e-06
-4.30424e-06
-4.38806e-06
-3.71297e-06
-2.98678e-06
-3.03258e-06
-1.39857e-06
-2.25197e-06
4.09903e-07
-1.35826e-06
2.47593e-06
-3.36713e-07
4.84027e-06
8.2933e-07
7.54571e-06
2.15842e-06
1.06351e-05
3.6711e-06
1.41488e-05
5.39004e-06
1.81207e-05
7.3403e-06
2.25751e-05
2.75219e-05
-3.70382e-07
-1.48373e-05
-7.66796e-07
-1.65258e-05
-1.17172e-06
-1.70322e-05
-1.57987e-06
-1.72423e-05
-1.98785e-06
-1.73283e-05
-2.39268e-06
-1.73448e-05
-2.79158e-06
-1.73143e-05
-3.18188e-06
-1.72475e-05
-3.56104e-06
-1.71502e-05
-3.92669e-06
-1.70255e-05
-4.27658e-06
-1.68754e-05
-4.60862e-06
-1.67011e-05
-4.92085e-06
-1.65033e-05
-5.21145e-06
-1.62825e-05
-5.47871e-06
-1.60387e-05
-5.72103e-06
-1.5772e-05
-5.93689e-06
-1.5482e-05
-6.12484e-06
-1.51683e-05
-6.2835e-06
-1.48302e-05
-6.41149e-06
-1.44666e-05
-6.50746e-06
-1.40762e-05
-6.56999e-06
-1.36575e-05
-6.59762e-06
-1.32085e-05
-6.58877e-06
-1.27267e-05
-6.5417e-06
-1.2209e-05
-6.45446e-06
-1.16519e-05
-6.3248e-06
-1.10508e-05
-6.15006e-06
-1.04001e-05
-5.92707e-06
-9.69303e-06
-5.65199e-06
-8.92091e-06
-5.32016e-06
-8.07315e-06
-4.92587e-06
-7.13664e-06
-4.4622e-06
-6.09527e-06
-3.92076e-06
-4.92951e-06
-3.29148e-06
-3.61607e-06
-2.56243e-06
-2.12763e-06
-1.71961e-06
-4.32914e-07
-7.46738e-07
1.50305e-06
3.75062e-07
3.71846e-06
1.6672e-06
6.25358e-06
3.15365e-06
9.14869e-06
4.86092e-06
1.24415e-05
6.81801e-06
1.61636e-05
9.05639e-06
2.03367e-05
2.49682e-05
-3.56788e-07
-1.44805e-05
-7.38445e-07
-1.61441e-05
-1.12804e-06
-1.66426e-05
-1.52062e-06
-1.68498e-05
-1.913e-06
-1.6936e-05
-2.30236e-06
-1.69555e-05
-2.68605e-06
-1.69306e-05
-3.06151e-06
-1.68721e-05
-3.42632e-06
-1.67854e-05
-3.77818e-06
-1.66736e-05
-4.11493e-06
-1.65387e-05
-4.43454e-06
-1.63815e-05
-4.73513e-06
-1.62027e-05
-5.01489e-06
-1.60027e-05
-5.27215e-06
-1.57814e-05
-5.50529e-06
-1.55388e-05
-5.71278e-06
-1.52745e-05
-5.89315e-06
-1.4988e-05
-6.04495e-06
-1.46784e-05
-6.16674e-06
-1.43448e-05
-6.25704e-06
-1.39859e-05
-6.31434e-06
-1.36003e-05
-6.33702e-06
-1.31858e-05
-6.32335e-06
-1.27403e-05
-6.27137e-06
-1.2261e-05
-6.17892e-06
-1.17444e-05
-6.04346e-06
-1.11863e-05
-5.862e-06
-1.05816e-05
-5.63097e-06
-9.92407e-06
-5.34604e-06
-9.20585e-06
-5.00192e-06
-8.41728e-06
-4.59214e-06
-7.54642e-06
-4.10879e-06
-6.57862e-06
-3.54223e-06
-5.49608e-06
-2.8808e-06
-4.2775e-06
-2.11056e-06
-2.89787e-06
-1.215e-06
-1.32848e-06
-1.74791e-07
4.62839e-07
1.0325e-06
2.51118e-06
2.43251e-06
4.85357e-06
4.05402e-06
7.52718e-06
5.92887e-06
1.05666e-05
8.09168e-06
1.40008e-05
1.05796e-05
1.78488e-05
2.21158e-05
-3.43912e-07
-1.41366e-05
-7.11485e-07
-1.57766e-05
-1.08623e-06
-1.62678e-05
-1.46348e-06
-1.64725e-05
-1.84025e-06
-1.65592e-05
-2.21393e-06
-1.65818e-05
-2.582e-06
-1.65625e-05
-2.94206e-06
-1.6512e-05
-3.29182e-06
-1.64356e-05
-3.6291e-06
-1.63364e-05
-3.95186e-06
-1.62159e-05
-4.25817e-06
-1.60752e-05
-4.54623e-06
-1.59147e-05
-4.8143e-06
-1.57346e-05
-5.06075e-06
-1.5535e-05
-5.284e-06
-1.53156e-05
-5.48251e-06
-1.5076e-05
-5.65478e-06
-1.48157e-05
-5.79932e-06
-1.45338e-05
-5.91463e-06
-1.42295e-05
-5.99915e-06
-1.39014e-05
-6.05125e-06
-1.35482e-05
-6.06919e-06
-1.31679e-05
-6.05107e-06
-1.27585e-05
-5.99479e-06
-1.23173e-05
-5.89795e-06
-1.18412e-05
-5.75778e-06
-1.13264e-05
-5.57101e-06
-1.07684e-05
-5.33374e-06
-1.01614e-05
-5.04122e-06
-9.49838e-06
-4.68769e-06
-8.77082e-06
-4.26607e-06
-7.96806e-06
-3.76767e-06
-7.07702e-06
-3.18188e-06
-6.08187e-06
-2.4958e-06
-4.96358e-06
-1.6939e-06
-3.69978e-06
-7.57676e-07
-2.26472e-06
3.34648e-07
-6.29488e-07
1.60836e-06
1.23747e-06
3.0925e-06
3.36944e-06
4.8198e-06
5.79988e-06
6.82647e-06
8.55996e-06
9.15182e-06
1.16754e-05
1.18377e-05
1.51629e-05
1.90257e-05
-3.31747e-07
-1.38049e-05
-6.85984e-07
-1.54224e-05
-1.04647e-06
-1.59074e-05
-1.40876e-06
-1.61102e-05
-1.77011e-06
-1.61978e-05
-2.12806e-06
-1.62238e-05
-2.48029e-06
-1.62103e-05
-2.82457e-06
-1.61677e-05
-3.15877e-06
-1.61014e-05
-3.48088e-06
-1.60142e-05
-3.789e-06
-1.59078e-05
-4.08135e-06
-1.57828e-05
-4.35622e-06
-1.56398e-05
-4.61198e-06
-1.54789e-05
-4.84707e-06
-1.52999e-05
-5.05994e-06
-1.51027e-05
-5.24909e-06
-1.48869e-05
-5.41301e-06
-1.46518e-05
-5.55017e-06
-1.43967e-05
-5.65902e-06
-1.41206e-05
-5.73793e-06
-1.38225e-05
-5.78518e-06
-1.35009e-05
-5.79891e-06
-1.31542e-05
-5.7771e-06
-1.27803e-05
-5.71748e-06
-1.23769e-05
-5.61748e-06
-1.19412e-05
-5.47414e-06
-1.14698e-05
-5.28397e-06
-1.09586e-05
-5.04279e-06
-1.04025e-05
-4.74558e-06
-9.7956e-06
-4.38621e-06
-9.1302e-06
-3.95719e-06
-8.39709e-06
-3.4493e-06
-7.58491e-06
-2.85129e-06
-6.67988e-06
-2.14942e-06
-5.66546e-06
-1.32707e-06
-4.52213e-06
-3.64397e-07
-3.2274e-06
7.62072e-07
-1.75596e-06
2.07966e-06
-8.01301e-08
3.6198e-06
1.82931e-06
5.41803e-06
4.00165e-06
7.51378e-06
6.46422e-06
9.94976e-06
9.23944e-06
1.27712e-05
1.23414e-05
1.5772e-05
-3.20239e-07
-1.34847e-05
-6.61927e-07
-1.50807e-05
-1.00882e-06
-1.55605e-05
-1.35665e-06
-1.57624e-05
-1.70284e-06
-1.58516e-05
-2.04514e-06
-1.58815e-05
-2.38143e-06
-1.5874e-05
-2.70969e-06
-1.58394e-05
-3.02797e-06
-1.57831e-05
-3.33448e-06
-1.57077e-05
-3.62749e-06
-1.56147e-05
-3.90538e-06
-1.55049e-05
-4.1666e-06
-1.53786e-05
-4.40963e-06
-1.52358e-05
-4.633e-06
-1.50766e-05
-4.83524e-06
-1.49005e-05
-5.01487e-06
-1.47072e-05
-5.1704e-06
-1.44962e-05
-5.3003e-06
-1.42668e-05
-5.40297e-06
-1.4018e-05
-5.47672e-06
-1.37488e-05
-5.51974e-06
-1.34579e-05
-5.5301e-06
-1.31438e-05
-5.50565e-06
-1.28047e-05
-5.44401e-06
-1.24386e-05
-5.34246e-06
-1.20428e-05
-5.19789e-06
-1.16144e-05
-5.00665e-06
-1.11498e-05
-4.76439e-06
-1.06448e-05
-4.46591e-06
-1.00941e-05
-4.10488e-06
-9.49124e-06
-3.67356e-06
-8.8284e-06
-3.16251e-06
-8.09597e-06
-2.56013e-06
-7.28226e-06
-1.8523e-06
-6.37329e-06
-1.02192e-06
-5.35253e-06
-4.84464e-08
-4.20088e-06
1.09242e-06
-2.89683e-06
2.42908e-06
-1.41679e-06
3.99424e-06
2.64143e-07
5.82499e-06
2.17091e-06
7.96253e-06
4.32669e-06
1.04516e-05
6.75041e-06
1.33393e-05
9.45368e-06
1.2437e-05
-3.09315e-07
-1.31754e-05
-6.39246e-07
-1.47507e-05
-9.73255e-07
-1.52265e-05
-1.30714e-06
-1.54285e-05
-1.63851e-06
-1.55203e-05
-1.96531e-06
-1.55547e-05
-2.28565e-06
-1.55536e-05
-2.59772e-06
-1.55274e-05
-2.89985e-06
-1.5481e-05
-3.19044e-06
-1.54171e-05
-3.468e-06
-1.53372e-05
-3.73109e-06
-1.52418e-05
-3.97834e-06
-1.51313e-05
-4.20837e-06
-1.50058e-05
-4.41984e-06
-1.48651e-05
-4.61136e-06
-1.4709e-05
-4.78151e-06
-1.45371e-05
-4.92882e-06
-1.43489e-05
-5.05178e-06
-1.41438e-05
-5.14875e-06
-1.3921e-05
-5.218e-06
-1.36795e-05
-5.25768e-06
-1.34182e-05
-5.26577e-06
-1.31358e-05
-5.24002e-06
-1.28305e-05
-5.17797e-06
-1.25006e-05
-5.0768e-06
-1.21439e-05
-4.93329e-06
-1.17579e-05
-4.74371e-06
-1.13394e-05
-4.50361e-06
-1.08849e-05
-4.20772e-06
-1.039e-05
-3.84966e-06
-9.84931e-06
-3.42166e-06
-9.2564e-06
-2.91427e-06
-8.60336e-06
-2.31594e-06
-7.8806e-06
-1.61259e-06
-7.07665e-06
-7.87168e-07
-6.17796e-06
1.80804e-07
-5.16886e-06
1.31562e-06
-4.03165e-06
2.64572e-06
-2.7469e-06
4.20396e-06
-1.2941e-06
6.02761e-06
3.47265e-07
8.15816e-06
2.19614e-06
1.06407e-05
4.26783e-06
1.3523e-05
6.57143e-06
9.10633e-06
-2.9892e-07
-1.28764e-05
-6.17856e-07
-1.44318e-05
-9.39658e-07
-1.49046e-05
-1.26012e-06
-1.5108e-05
-1.57698e-06
-1.52034e-05
-1.88844e-06
-1.52432e-05
-2.19283e-06
-1.52492e-05
-2.48863e-06
-1.52316e-05
-2.77442e-06
-1.51952e-05
-3.04887e-06
-1.51427e-05
-3.31073e-06
-1.50753e-05
-3.5588e-06
-1.49937e-05
-3.79188e-06
-1.48982e-05
-4.0088e-06
-1.47889e-05
-4.20832e-06
-1.46656e-05
-4.38918e-06
-1.45281e-05
-4.55003e-06
-1.43762e-05
-4.68946e-06
-1.42095e-05
-4.80595e-06
-1.40273e-05
-4.89789e-06
-1.38291e-05
-4.96352e-06
-1.36139e-05
-5.00092e-06
-1.33808e-05
-5.00803e-06
-1.31286e-05
-4.98256e-06
-1.2856e-05
-4.92196e-06
-1.25612e-05
-4.82336e-06
-1.22425e-05
-4.6835e-06
-1.18977e-05
-4.4986e-06
-1.15243e-05
-4.26422e-06
-1.11193e-05
-3.97511e-06
-1.06791e-05
-3.62498e-06
-1.01994e-05
-3.20623e-06
-9.67516e-06
-2.70964e-06
-9.09995e-06
-2.124e-06
-8.46624e-06
-1.4357e-06
-7.76496e-06
-6.2825e-07
-6.98542e-06
3.18105e-07
-6.11523e-06
1.42683e-06
-5.14039e-06
2.72545e-06
-4.04552e-06
4.24578e-06
-2.81442e-06
6.02399e-06
-1.43095e-06
8.10044e-06
1.19696e-07
1.0519e-05
1.84923e-06
1.33263e-05
3.76415e-06
5.86279e-06
-2.89041e-07
-1.25874e-05
-5.97666e-07
-1.41232e-05
-9.07844e-07
-1.45944e-05
-1.2153e-06
-1.48005e-05
-1.51792e-06
-1.49007e-05
-1.81414e-06
-1.4947e-05
-2.10259e-06
-1.49608e-05
-2.38203e-06
-1.49521e-05
-2.65134e-06
-1.49259e-05
-2.90948e-06
-1.48845e-05
-3.15549e-06
-1.48293e-05
-3.38839e-06
-1.47608e-05
-3.60723e-06
-1.46794e-05
-3.811e-06
-1.45851e-05
-3.99865e-06
-1.44779e-05
-4.16902e-06
-1.43578e-05
-4.32088e-06
-1.42244e-05
-4.45288e-06
-1.40775e-05
-4.56353e-06
-1.39167e-05
-4.65124e-06
-1.37414e-05
-4.71423e-06
-1.35509e-05
-4.75058e-06
-1.33445e-05
-4.75818e-06
-1.3121e-05
-4.73472e-06
-1.28794e-05
-4.67761e-06
-1.26183e-05
-4.58397e-06
-1.23362e-05
-4.45053e-06
-1.20312e-05
-4.27354e-06
-1.17013e-05
-4.04864e-06
-1.13442e-05
-3.77071e-06
-1.0957e-05
-3.43366e-06
-1.05365e-05
-3.03021e-06
-1.00786e-05
-2.55161e-06
-9.57855e-06
-1.98724e-06
-9.03062e-06
-1.32427e-06
-8.42793e-06
-5.47275e-07
-7.76242e-06
3.62253e-07
-7.02476e-06
1.42626e-06
-6.2044e-06
2.67047e-06
-5.28973e-06
4.12465e-06
-4.2686e-06
5.82269e-06
-3.12898e-06
7.80244e-06
-1.86004e-06
1.01052e-05
-4.53532e-07
1.27748e-05
1.09453e-06
2.78136e-06
-2.79694e-07
-1.23077e-05
-5.78548e-07
-1.38243e-05
-8.77517e-07
-1.42955e-05
-1.17223e-06
-1.45058e-05
-1.46075e-06
-1.46122e-05
-1.74177e-06
-1.4666e-05
-2.01422e-06
-1.46883e-05
-2.27719e-06
-1.46891e-05
-2.5299e-06
-1.46731e-05
-2.77163e-06
-1.46428e-05
-3.00167e-06
-1.45992e-05
-3.21935e-06
-1.45431e-05
-3.42394e-06
-1.44748e-05
-3.61465e-06
-1.43944e-05
-3.79058e-06
-1.4302e-05
-3.95075e-06
-1.41976e-05
-4.09401e-06
-1.40811e-05
-4.21911e-06
-1.39524e-05
-4.32462e-06
-1.38112e-05
-4.40897e-06
-1.36571e-05
-4.4704e-06
-1.34895e-05
-4.507e-06
-1.33079e-05
-4.51665e-06
-1.31114e-05
-4.49703e-06
-1.28991e-05
-4.44556e-06
-1.26698e-05
-4.35938e-06
-1.24223e-05
-4.23525e-06
-1.21553e-05
-4.06951e-06
-1.18671e-05
-3.85795e-06
-1.15558e-05
-3.59565e-06
-1.12193e-05
-3.27685e-06
-1.08553e-05
-2.89472e-06
-1.04607e-05
-2.4411e-06
-1.00322e-05
-1.9062e-06
-9.56552e-06
-1.27826e-06
-9.05587e-06
-5.43204e-07
-8.49748e-06
3.15772e-07
-7.88374e-06
1.31856e-06
-7.20719e-06
2.48845e-06
-6.45962e-06
3.85236e-06
-5.6325e-06
5.44091e-06
-4.71752e-06
7.28834e-06
-3.70746e-06
9.43206e-06
-2.59724e-06
1.19119e-05
-1.38531e-06
-7.55799e-08
-2.70859e-07
-1.20368e-05
-5.6026e-07
-1.35349e-05
-8.48192e-07
-1.40075e-05
-1.13023e-06
-1.42237e-05
-1.40462e-06
-1.43378e-05
-1.67035e-06
-1.44002e-05
-1.92669e-06
-1.4432e-05
-2.17309e-06
-1.44427e-05
-2.4091e-06
-1.44371e-05
-2.63431e-06
-1.44176e-05
-2.84836e-06
-1.43852e-05
-3.05083e-06
-1.43407e-05
-3.24125e-06
-1.42844e-05
-3.41904e-06
-1.42166e-05
-3.5835e-06
-1.41376e-05
-3.73379e-06
-1.40473e-05
-3.86891e-06
-1.3946e-05
-3.98769e-06
-1.38336e-05
-4.0888e-06
-1.37101e-05
-4.1707e-06
-1.35752e-05
-4.23168e-06
-1.34285e-05
-4.26986e-06
-1.32697e-05
-4.28313e-06
-1.30981e-05
-4.2692e-06
-1.2913e-05
-4.22552e-06
-1.27135e-05
-4.14929e-06
-1.24986e-05
-4.03737e-06
-1.22672e-05
-3.88621e-06
-1.20182e-05
-3.69181e-06
-1.17502e-05
-3.44953e-06
-1.14616e-05
-3.15401e-06
-1.11508e-05
-2.79896e-06
-1.08158e-05
-2.37695e-06
-1.04542e-05
-1.87914e-06
-1.00633e-05
-1.29502e-06
-9.63999e-06
-6.12087e-07
-9.18042e-06
1.845e-07
-8.68033e-06
1.1122e-06
-8.13489e-06
2.19144e-06
-7.53886e-06
3.44578e-06
-6.88683e-06
4.90195e-06
-6.17369e-06
6.58981e-06
-5.3953e-06
8.54194e-06
-4.54936e-06
1.07931e-05
-3.63646e-06
-2.66155e-06
-2.6237e-07
-1.17744e-05
-5.42321e-07
-1.32549e-05
-8.19092e-07
-1.37307e-05
-1.08827e-06
-1.39545e-05
-1.34835e-06
-1.40777e-05