/*--------------------------------*- C++ -*----------------------------------*\
| =========                 |                                                 |
| \\      /  F ield         | OpenFOAM: The Open Source CFD Toolbox           |
|  \\    /   O peration     | Version:  5.0                                   |
|   \\  /    A nd           | Web:      www.OpenFOAM.org                      |
|    \\/     M anipulation  |                                                 |
\*---------------------------------------------------------------------------*/
FoamFile
{
    version     2.0;
    format      ascii;
    class       volVectorField;
    location    "0.6";
    object      U;
}
// * * * * * * * * * * * * * * * * * * * * * * * * * * * * * * * * * * * * * //

dimensions      [0 1 -1 0 0 0 0];

internalField   nonuniform List<vector> 
1915
(
(-0.042193 -0.162269 0)
(-0.0408229 -0.151957 0)
(-0.0391565 -0.141276 0)
(-0.0372054 -0.130219 0)
(-0.0349848 -0.118773 0)
(-0.0325141 -0.106919 0)
(-0.0298177 -0.0946352 0)
(-0.0269259 -0.0818879 0)
(-0.0238767 -0.0686364 0)
(-0.0207163 -0.0548292 0)
(-0.0175014 -0.0404022 0)
(-0.014301 -0.0252783 0)
(-0.0111977 -0.00936588 0)
(-0.00829068 0.00744204 0)
(-0.00569638 0.0252702 0)
(-0.00355151 0.0442642 0)
(-0.00201525 0.0645871 0)
(-0.00127168 0.0864178 0)
(-0.00153178 0.109948 0)
(-0.00303481 0.135379 0)
(-0.00604881 0.162918 0)
(-0.0108702 0.192767 0)
(-0.0178225 0.225123 0)
(-0.027252 0.26016 0)
(-0.0395368 0.298027 0)
(-0.00281893 -0.237006 0)
(-0.00759042 -0.259059 0)
(-0.0123949 -0.264557 0)
(-0.0170308 -0.265777 0)
(-0.0214364 -0.265037 0)
(-0.0255556 -0.26307 0)
(-0.0293744 -0.26019 0)
(-0.0328859 -0.256559 0)
(-0.0360851 -0.25227 0)
(-0.0389684 -0.247387 0)
(-0.0415332 -0.241956 0)
(-0.0437777 -0.236015 0)
(-0.0457004 -0.229593 0)
(-0.0473004 -0.222717 0)
(-0.048577 -0.21541 0)
(-0.0495298 -0.20769 0)
(-0.050159 -0.199572 0)
(-0.0504655 -0.19107 0)
(-0.0504509 -0.18219 0)
(-0.0501174 -0.17294 0)
(-0.049469 -0.163318 0)
(-0.0485114 -0.153325 0)
(-0.0472522 -0.142953 0)
(-0.0457014 -0.132191 0)
(-0.0438724 -0.121023 0)
(-0.0417824 -0.109426 0)
(-0.039453 -0.0973705 0)
(-0.0369116 -0.0848182 0)
(-0.0341924 -0.0717197 0)
(-0.0313376 -0.0580136 0)
(-0.0283991 -0.0436247 0)
(-0.0254403 -0.0284622 0)
(-0.0225384 -0.0124187 0)
(-0.0197863 0.00463039 0)
(-0.0172943 0.0228293 0)
(-0.0151926 0.042346 0)
(-0.0136339 0.0633687 0)
(-0.0127961 0.0861036 0)
(-0.0128845 0.110772 0)
(-0.0141333 0.137605 0)
(-0.0168065 0.166841 0)
(-0.0211979 0.198712 0)
(-0.0276307 0.233443 0)
(-0.0364531 0.271235 0)
(-0.0480377 0.312251 0)
(-0.00288531 -0.23172 0)
(-0.00777558 -0.253689 0)
(-0.0127369 -0.259375 0)
(-0.0175594 -0.260847 0)
(-0.0221809 -0.260387 0)
(-0.0265422 -0.258718 0)
(-0.0306266 -0.256149 0)
(-0.0344246 -0.252835 0)
(-0.0379288 -0.24887 0)
(-0.0411327 -0.244316 0)
(-0.0440316 -0.239217 0)
(-0.0466214 -0.23361 0)
(-0.0488987 -0.227525 0)
(-0.0508608 -0.220988 0)
(-0.0525054 -0.214021 0)
(-0.0538307 -0.206642 0)
(-0.0548356 -0.198866 0)
(-0.0555197 -0.190704 0)
(-0.0558834 -0.182163 0)
(-0.055928 -0.173249 0)
(-0.0556563 -0.163959 0)
(-0.0550727 -0.154292 0)
(-0.0541833 -0.144236 0)
(-0.0529965 -0.13378 0)
(-0.051524 -0.122902 0)
(-0.0497806 -0.111576 0)
(-0.0477855 -0.0997674 0)
(-0.0455629 -0.087431 0)
(-0.0431432 -0.07451 0)
(-0.0405643 -0.060934 0)
(-0.0378733 -0.0466167 0)
(-0.0351281 -0.0314545 0)
(-0.0323997 -0.0153247 0)
(-0.0297742 0.00191516 0)
(-0.0273553 0.0204286 0)
(-0.0252659 0.0404059 0)
(-0.0236513 0.0620607 0)
(-0.0226821 0.0856271 0)
(-0.0225563 0.111356 0)
(-0.0235016 0.139512 0)
(-0.0257759 0.170362 0)
(-0.0296681 0.204174 0)
(-0.0354971 0.2412 0)
(-0.0436086 0.281668 0)
(-0.054372 0.325766 0)
(-0.00290964 -0.226296 0)
(-0.00785949 -0.248152 0)
(-0.0129172 -0.253994 0)
(-0.0178669 -0.255687 0)
(-0.0226456 -0.255481 0)
(-0.0271915 -0.254086 0)
(-0.0314851 -0.251805 0)
(-0.0355142 -0.248791 0)
(-0.0392686 -0.245134 0)
(-0.0427397 -0.240894 0)
(-0.0459201 -0.236117 0)
(-0.0488037 -0.230836 0)
(-0.051385 -0.225082 0)
(-0.0536595 -0.218879 0)
(-0.0556233 -0.212249 0)
(-0.0572731 -0.20521 0)
(-0.0586067 -0.197774 0)
(-0.0596222 -0.189954 0)
(-0.060319 -0.181755 0)
(-0.0606972 -0.17318 0)
(-0.0607586 -0.164227 0)
(-0.060506 -0.154891 0)
(-0.0599444 -0.14516 0)
(-0.0590808 -0.135018 0)
(-0.0579246 -0.124442 0)
(-0.0564887 -0.113402 0)
(-0.0547895 -0.101856 0)
(-0.0528482 -0.0897558 0)
(-0.0506914 -0.0770364 0)
(-0.0483527 -0.063619 0)
(-0.0458741 -0.049407 0)
(-0.0433077 -0.0342844 0)
(-0.0407181 -0.0181138 0)
(-0.0381842 -0.000735575 0)
(-0.0358021 0.0180336 0)
(-0.0336868 0.0384056 0)
(-0.0319752 0.0606198 0)
(-0.030829 0.0849384 0)
(-0.0304377 0.111643 0)
(-0.03102 0.14103 0)
(-0.0328256 0.1734 0)
(-0.036135 0.209053 0)
(-0.0412594 0.248272 0)
(-0.0485361 0.291313 0)
(-0.0583252 0.338384 0)
(-0.00289899 -0.220801 0)
(-0.00785626 -0.242509 0)
(-0.0129561 -0.248473 0)
(-0.0179782 -0.250357 0)
(-0.0228595 -0.250376 0)
(-0.0275355 -0.249229 0)
(-0.031984 -0.247213 0)
(-0.0361904 -0.244478 0)
(-0.0401418 -0.241113 0)
(-0.0438272 -0.237174 0)
(-0.047237 -0.232706 0)
(-0.0503627 -0.227742 0)
(-0.0531971 -0.222311 0)
(-0.0557337 -0.216437 0)
(-0.0579671 -0.21014 0)
(-0.0598925 -0.203438 0)
(-0.0615063 -0.196343 0)
(-0.0628056 -0.188864 0)
(-0.0637883 -0.181008 0)
(-0.0644538 -0.172776 0)
(-0.0648023 -0.164164 0)
(-0.0648357 -0.155165 0)
(-0.0645574 -0.145765 0)
(-0.0639729 -0.135947 0)
(-0.0630899 -0.125683 0)
(-0.0619189 -0.114941 0)
(-0.0604738 -0.103675 0)
(-0.0587725 -0.0918299 0)
(-0.0568379 -0.0793356 0)
(-0.0546993 -0.0661051 0)
(-0.0523934 -0.0520323 0)
(-0.0499664 -0.0369893 0)
(-0.0474757 -0.0208248 0)
(-0.0449929 -0.00336227 0)
(-0.0426057 0.0156007 0)
(-0.04042 0.0362975 0)
(-0.038563 0.0589926 0)
(-0.0371864 0.0839764 0)
(-0.0364687 0.111561 0)
(-0.0366176 0.142075 0)
(-0.0378711 0.175854 0)
(-0.0404978 0.213228 0)
(-0.0447963 0.254514 0)
(-0.05109 0.299991 0)
(-0.0597224 0.349891 0)
(-0.00286003 -0.215291 0)
(-0.00777969 -0.236816 0)
(-0.0128737 -0.242867 0)
(-0.0179189 -0.24491 0)
(-0.0228524 -0.245125 0)
(-0.0276077 -0.2442 0)
(-0.0321602 -0.242427 0)
(-0.0364926 -0.239951 0)
(-0.0405899 -0.236859 0)
(-0.0444386 -0.233206 0)
(-0.048027 -0.229035 0)
(-0.0513445 -0.224377 0)
(-0.0543818 -0.219261 0)
(-0.057131 -0.21371 0)
(-0.0595847 -0.207742 0)
(-0.061737 -0.201374 0)
(-0.0635828 -0.194617 0)
(-0.0651179 -0.187481 0)
(-0.0663394 -0.179968 0)
(-0.0672452 -0.17208 0)
(-0.0678345 -0.163813 0)
(-0.0681079 -0.155155 0)
(-0.0680676 -0.146094 0)
(-0.0677173 -0.136607 0)
(-0.0670629 -0.126667 0)
(-0.0661128 -0.116235 0)
(-0.0648782 -0.105265 0)
(-0.0633739 -0.0936946 0)
(-0.061619 -0.081449 0)
(-0.0596381 -0.068434 0)
(-0.0574627 -0.0545347 0)
(-0.0551325 -0.0396123 0)
(-0.0526979 -0.0235022 0)
(-0.050222 -0.00601208 0)
(-0.0477832 0.0130791 0)
(-0.0454776 0.0340256 0)
(-0.0434211 0.0571161 0)
(-0.0417532 0.082669 0)
(-0.0406394 0.111027 0)
(-0.0402732 0.142549 0)
(-0.0408776 0.177605 0)
(-0.0427046 0.216556 0)
(-0.0460349 0.259749 0)
(-0.0511714 0.307488 0)
(-0.0584332 0.360023 0)
(-0.00279894 -0.209813 0)
(-0.00764297 -0.231121 0)
(-0.0126895 -0.237226 0)
(-0.0177142 -0.239397 0)
(-0.0226545 -0.239779 0)
(-0.0274428 -0.239051 0)
(-0.0320519 -0.237497 0)
(-0.0364627 -0.23526 0)
(-0.0406577 -0.232423 0)
(-0.0446214 -0.229041 0)
(-0.0483399 -0.225153 0)
(-0.0518008 -0.220792 0)
(-0.0549929 -0.215982 0)
(-0.0579066 -0.210747 0)
(-0.060533 -0.205103 0)
(-0.0628648 -0.199065 0)
(-0.0648956 -0.192645 0)
(-0.0666201 -0.185849 0)
(-0.068034 -0.178681 0)
(-0.0691343 -0.17114 0)
(-0.069919 -0.163219 0)
(-0.0703874 -0.154909 0)
(-0.0705403 -0.146191 0)
(-0.0703799 -0.137045 0)
(-0.0699102 -0.127437 0)
(-0.0691374 -0.117329 0)
(-0.0680701 -0.106669 0)
(-0.0667197 -0.0953936 0)
(-0.0651016 -0.0834204 0)
(-0.0632357 -0.0706499 0)
(-0.0611479 -0.0569591 0)
(-0.0588713 -0.0421996 0)
(-0.0564484 -0.0261945 0)
(-0.0539334 -0.00873661 0)
(-0.0513944 0.0104127 0)
(-0.0489161 0.0315274 0)
(-0.0466016 0.0549197 0)
(-0.044576 0.0809343 0)
(-0.0429889 0.109943 0)
(-0.0420164 0.142336 0)
(-0.041862 0.178513 0)
(-0.0427563 0.218868 0)
(-0.044956 0.263772 0)
(-0.0487364 0.313553 0)
(-0.0543843 0.368474 0)
(-0.00272155 -0.204408 0)
(-0.00745854 -0.225467 0)
(-0.0124224 -0.231594 0)
(-0.0173886 -0.233863 0)
(-0.0222957 -0.234386 0)
(-0.0270752 -0.233829 0)
(-0.0316981 -0.232471 0)
(-0.0361434 -0.230453 0)
(-0.0403916 -0.227854 0)
(-0.0444252 -0.224727 0)
(-0.0482286 -0.22111 0)
(-0.0517874 -0.217034 0)
(-0.0550889 -0.212522 0)
(-0.0581216 -0.207595 0)
(-0.0608756 -0.202269 0)
(-0.0633419 -0.196558 0)
(-0.065513 -0.190472 0)
(-0.0673824 -0.184016 0)
(-0.0689448 -0.177193 0)
(-0.0701959 -0.169999 0)
(-0.0711327 -0.162429 0)
(-0.0717532 -0.154469 0)
(-0.0720567 -0.146102 0)
(-0.0720439 -0.137302 0)
(-0.071717 -0.128038 0)
(-0.0710798 -0.118266 0)
(-0.0701382 -0.107933 0)
(-0.0689005 -0.0969706 0)
(-0.067378 -0.085294 0)
(-0.0655858 -0.0727975 0)
(-0.063544 -0.0593515 0)
(-0.0612786 -0.0447989 0)
(-0.0588239 -0.028952 0)
(-0.056224 -0.0115901 0)
(-0.0535359 0.00754176 0)
(-0.0508312 0.0287358 0)
(-0.0481982 0.0523259 0)
(-0.0457451 0.0786816 0)
(-0.0436025 0.108202 0)
(-0.0419253 0.141306 0)
(-0.0408928 0.178422 0)
(-0.0407088 0.219971 0)
(-0.0415994 0.266348 0)
(-0.043805 0.317899 0)
(-0.047572 0.374894 0)
(-0.00263336 -0.199107 0)
(-0.007238 -0.21989 0)
(-0.0120901 -0.226011 0)
(-0.0169656 -0.22835 0)
(-0.0218046 -0.228988 0)
(-0.0265386 -0.228578 0)
(-0.0311372 -0.227395 0)
(-0.0355775 -0.225575 0)
(-0.0398385 -0.223197 0)
(-0.043901 -0.220311 0)
(-0.0477475 -0.216952 0)
(-0.0513623 -0.21315 0)
(-0.054731 -0.208926 0)
(-0.0578407 -0.2043 0)
(-0.0606801 -0.199287 0)
(-0.0632391 -0.193899 0)
(-0.065509 -0.188143 0)
(-0.0674821 -0.182026 0)
(-0.0691521 -0.175547 0)
(-0.0705135 -0.168702 0)
(-0.0715622 -0.161484 0)
(-0.0722949 -0.153879 0)
(-0.0727096 -0.145867 0)
(-0.0728053 -0.137422 0)
(-0.0725823 -0.128511 0)
(-0.0720421 -0.119088 0)
(-0.0711879 -0.109097 0)
(-0.0700247 -0.0984681 0)
(-0.0685596 -0.0871126 0)
(-0.0668029 -0.0749206 0)
(-0.0647684 -0.061757 0)
(-0.0624747 -0.0474574 0)
(-0.0599471 -0.0318249 0)
(-0.0572191 -0.014627 0)
(-0.0543348 0.00440553 0)
(-0.0513514 0.0255815 0)
(-0.0483402 0.049254 0)
(-0.0453897 0.075815 0)
(-0.0426081 0.105688 0)
(-0.0401247 0.139318 0)
(-0.0380901 0.177159 0)
(-0.0366751 0.219655 0)
(-0.036069 0.26722 0)
(-0.0364695 0.320211 0)
(-0.0380748 0.378901 0)
(-0.00253931 -0.193932 0)
(-0.0069918 -0.214419 0)
(-0.011709 -0.220508 0)
(-0.016467 -0.222893 0)
(-0.0212086 -0.223622 0)
(-0.0258655 -0.223337 0)
(-0.0304063 -0.222309 0)
(-0.0348068 -0.22067 0)
(-0.0390446 -0.218496 0)
(-0.043099 -0.215835 0)
(-0.0469511 -0.212722 0)
(-0.0505838 -0.209183 0)
(-0.0539814 -0.205238 0)
(-0.0571297 -0.200906 0)
(-0.0600163 -0.196199 0)
(-0.0626299 -0.191129 0)
(-0.0649607 -0.185701 0)
(-0.067 -0.17992 0)
(-0.0687404 -0.173784 0)
(-0.0701754 -0.167289 0)
(-0.0712996 -0.160425 0)
(-0.0721086 -0.153178 0)
(-0.0725989 -0.145527 0)
(-0.0727679 -0.137445 0)
(-0.0726139 -0.128895 0)
(-0.0721363 -0.119833 0)
(-0.0713353 -0.110201 0)
(-0.0702125 -0.0999254 0)
(-0.068771 -0.0889161 0)
(-0.0670157 -0.07706 0)
(-0.064954 -0.0642177 0)
(-0.0625968 -0.0502194 0)
(-0.0599597 -0.0348607 0)
(-0.0570645 -0.0178998 0)
(-0.0539414 0.00094488 0)
(-0.0506313 0.0219961 0)
(-0.0471862 0.0456232 0)
(-0.0436721 0.0722371 0)
(-0.0401714 0.102282 0)
(-0.0367832 0.136226 0)
(-0.0336243 0.174544 0)
(-0.030827 0.217698 0)
(-0.0285372 0.266115 0)
(-0.0269033 0.320158 0)
(-0.0260677 0.380096 0)
(-0.00244323 -0.1889 0)
(-0.00672898 -0.209077 0)
(-0.0112935 -0.215114 0)
(-0.0159129 -0.217523 0)
(-0.0205329 -0.218321 0)
(-0.0250862 -0.218142 0)
(-0.0295407 -0.217249 0)
(-0.0338712 -0.215774 0)
(-0.0380543 -0.213788 0)
(-0.042068 -0.211339 0)
(-0.0458925 -0.208459 0)
(-0.0495093 -0.205172 0)
(-0.0529016 -0.201498 0)
(-0.0560543 -0.197452 0)
(-0.0589539 -0.193045 0)
(-0.061588 -0.188288 0)
(-0.0639459 -0.183184 0)
(-0.066018 -0.177736 0)
(-0.0677958 -0.171943 0)
(-0.0692717 -0.165798 0)
(-0.0704394 -0.15929 0)
(-0.071293 -0.152404 0)
(-0.0718278 -0.145119 0)
(-0.0720394 -0.137405 0)
(-0.0719243 -0.129227 0)
(-0.0714794 -0.120538 0)
(-0.0707022 -0.11128 0)
(-0.0695908 -0.101378 0)
(-0.0681439 -0.0907402 0)
(-0.0663611 -0.0792519 0)
(-0.0642432 -0.0667712 0)
(-0.0617929 -0.0531245 0)
(-0.0590155 -0.0381024 0)
(-0.0559204 -0.021456 0)
(-0.0525225 -0.00289445 0)
(-0.0488447 0.0179161 0)
(-0.0449177 0.0413572 0)
(-0.0407821 0.0678549 0)
(-0.0364907 0.0978705 0)
(-0.0321088 0.131888 0)
(-0.0277143 0.1704 0)
(-0.0233953 0.21388 0)
(-0.0192487 0.262764 0)
(-0.0153678 0.317413 0)
(-0.0118334 0.378082 0)
(-0.00234751 -0.184021 0)
(-0.00645693 -0.203883 0)
(-0.0108562 -0.20985 0)
(-0.0153211 -0.212265 0)
(-0.0198003 -0.213114 0)
(-0.0242285 -0.213022 0)
(-0.028573 -0.212248 0)
(-0.032808 -0.21092 0)
(-0.0369094 -0.209109 0)
(-0.0408545 -0.206859 0)
(-0.0446223 -0.2042 0)
(-0.0481936 -0.201155 0)
(-0.0515508 -0.197742 0)
(-0.0546779 -0.193974 0)
(-0.0575604 -0.189861 0)
(-0.0601853 -0.185411 0)
(-0.0625408 -0.180627 0)
(-0.0646165 -0.17551 0)
(-0.066403 -0.170057 0)
(-0.0678917 -0.164261 0)
(-0.0690752 -0.15811 0)
(-0.0699464 -0.151588 0)
(-0.0704991 -0.144672 0)
(-0.0707275 -0.137334 0)
(-0.0706259 -0.129537 0)
(-0.070189 -0.121233 0)
(-0.0694113 -0.112364 0)
(-0.0682875 -0.102855 0)
(-0.0668119 -0.092615 0)
(-0.0649786 -0.0815273 0)
(-0.0627817 -0.0694494 0)
(-0.0602153 -0.0562064 0)
(-0.057274 -0.0415862 0)
(-0.0539541 -0.0253358 0)
(-0.0502544 -0.00715874 0)
(-0.0461778 0.0132865 0)
(-0.0417322 0.0363892 0)
(-0.0369303 0.0625857 0)
(-0.031792 0.0923487 0)
(-0.0263451 0.126174 0)
(-0.020624 0.164564 0)
(-0.0146685 0.208 0)
(-0.00852099 0.256918 0)
(-0.00221521 0.31167 0)
(0.00423301 0.372493 0)
(-0.00225292 -0.179303 0)
(-0.0061814 -0.19885 0)
(-0.0104079 -0.204734 0)
(-0.0147069 -0.207139 0)
(-0.0190312 -0.208023 0)
(-0.0233173 -0.208002 0)
(-0.0275327 -0.207332 0)
(-0.0316513 -0.206138 0)
(-0.0356485 -0.204488 0)
(-0.0395011 -0.202424 0)
(-0.0431877 -0.199976 0)
(-0.0466883 -0.197164 0)
(-0.0499847 -0.194003 0)
(-0.0530604 -0.190505 0)
(-0.0559001 -0.186679 0)
(-0.0584902 -0.18253 0)
(-0.0608181 -0.178062 0)
(-0.0628727 -0.173272 0)
(-0.0646435 -0.168157 0)
(-0.0661213 -0.162709 0)
(-0.0672975 -0.156915 0)
(-0.0681639 -0.150758 0)
(-0.0687129 -0.144216 0)
(-0.0689369 -0.137259 0)
(-0.0688284 -0.12985 0)
(-0.0683798 -0.121942 0)
(-0.0675827 -0.113478 0)
(-0.0664283 -0.104383 0)
(-0.0649064 -0.0945649 0)
(-0.0630059 -0.0839103 0)
(-0.0607139 -0.0722771 0)
(-0.0580157 -0.0594908 0)
(-0.0548953 -0.0453396 0)
(-0.0513351 -0.0295699 0)
(-0.0473171 -0.0118832 0)
(-0.0428235 0.00806516 0)
(-0.0378375 0.0306675 0)
(-0.0323421 0.0563644 0)
(-0.0263222 0.0856342 0)
(-0.0197645 0.118978 0)
(-0.012657 0.156902 0)
(-0.00498711 0.199887 0)
(0.00326069 0.248365 0)
(0.0121153 0.302673 0)
(0.021628 0.363023 0)
(-0.00215963 -0.174747 0)
(-0.00590698 -0.193984 0)
(-0.00995718 -0.199777 0)
(-0.0140837 -0.20216 0)
(-0.0182432 -0.203067 0)
(-0.0223746 -0.203104 0)
(-0.0264461 -0.202525 0)
(-0.0304316 -0.201452 0)
(-0.0343064 -0.199951 0)
(-0.038047 -0.198063 0)
(-0.0416318 -0.195815 0)
(-0.0450405 -0.193226 0)
(-0.0482547 -0.190308 0)
(-0.0512573 -0.187073 0)
(-0.0540326 -0.183526 0)
(-0.0565664 -0.179673 0)
(-0.0588457 -0.175514 0)
(-0.0608585 -0.171047 0)
(-0.0625937 -0.166267 0)
(-0.0640412 -0.161165 0)
(-0.0651914 -0.155727 0)
(-0.0660351 -0.149937 0)
(-0.0665631 -0.143771 0)
(-0.0667665 -0.1372 0)
(-0.0666357 -0.130187 0)
(-0.0661607 -0.122686 0)
(-0.0653306 -0.114641 0)
(-0.0641329 -0.105978 0)
(-0.0625533 -0.0966076 0)
(-0.0605751 -0.0864184 0)
(-0.0581788 -0.0752712 0)
(-0.0553411 -0.0629946 0)
(-0.0520351 -0.04938 0)
(-0.0482296 -0.0341768 0)
(-0.0438894 -0.0170888 0)
(-0.0389754 0.00222687 0)
(-0.0334453 0.0241606 0)
(-0.0272515 0.0491506 0)
(-0.0203422 0.077674 0)
(-0.0126614 0.11023 0)
(-0.00414815 0.147322 0)
(0.00526492 0.189425 0)
(0.0156527 0.236958 0)
(0.0271085 0.290242 0)
(0.0397501 0.349459 0)
(-0.0020686 -0.170356 0)
(-0.00563764 -0.189288 0)
(-0.00951171 -0.194986 0)
(-0.0134626 -0.19734 0)
(-0.0174513 -0.198258 0)
(-0.0214195 -0.198344 0)
(-0.0253362 -0.197846 0)
(-0.0291758 -0.196883 0)
(-0.0329136 -0.195521 0)
(-0.0365266 -0.193799 0)
(-0.039993 -0.191742 0)
(-0.0432927 -0.189365 0)
(-0.046407 -0.186683 0)
(-0.0493186 -0.183702 0)
(-0.0520118 -0.180428 0)
(-0.0544719 -0.176863 0)
(-0.0566854 -0.173008 0)
(-0.0586398 -0.168859 0)
(-0.0603235 -0.164409 0)
(-0.0617255 -0.15965 0)
(-0.0628353 -0.154567 0)
(-0.0636426 -0.149143 0)
(-0.064137 -0.143355 0)
(-0.0643078 -0.137173 0)
(-0.0641439 -0.130563 0)
(-0.0636329 -0.123479 0)
(-0.0627612 -0.115866 0)
(-0.061513 -0.107653 0)
(-0.0598699 -0.098754 0)
(-0.0578101 -0.0890612 0)
(-0.0553075 -0.07844 0)
(-0.0523306 -0.0667248 0)
(-0.0488421 -0.0537133 0)
(-0.0447974 -0.0391614 0)
(-0.0401445 -0.0227799 0)
(-0.0348234 -0.00423305 0)
(-0.0287661 0.0168621 0)
(-0.0218946 0.0409348 0)
(-0.01412 0.0684532 0)
(-0.0053432 0.099908 0)
(0.00454617 0.135791 0)
(0.0156707 0.176566 0)
(0.0281649 0.222636 0)
(0.0421851 0.274298 0)
(0.0579136 0.331705 0)
(-0.00198159 -0.166128 0)
(-0.00537698 -0.184762 0)
(-0.00907771 -0.190364 0)
(-0.012853 -0.192684 0)
(-0.0166682 -0.193608 0)
(-0.0204678 -0.193734 0)
(-0.0242223 -0.193308 0)
(-0.0279065 -0.192447 0)
(-0.0314966 -0.191216 0)
(-0.0349698 -0.189651 0)
(-0.0383048 -0.187775 0)
(-0.0414817 -0.185603 0)
(-0.044482 -0.183147 0)
(-0.0472885 -0.180412 0)
(-0.0498854 -0.177402 0)
(-0.0522579 -0.174119 0)
(-0.0543923 -0.170561 0)
(-0.0562755 -0.166724 0)
(-0.0578955 -0.1626 0)
(-0.0592407 -0.15818 0)
(-0.0602996 -0.153449 0)
(-0.0610609 -0.14839 0)
(-0.061513 -0.14298 0)
(-0.0616439 -0.137191 0)
(-0.0614404 -0.130989 0)
(-0.0608883 -0.12433 0)
(-0.0599713 -0.11716 0)
(-0.0586706 -0.109414 0)
(-0.056964 -0.101008 0)
(-0.0548248 -0.0918405 0)
(-0.0522209 -0.0817831 0)
(-0.0491132 -0.0706783 0)
(-0.0454546 -0.0583328 0)
(-0.0411882 -0.0445133 0)
(-0.0362463 -0.0289422 0)
(-0.0305489 -0.0112959 0)
(-0.0240033 0.00879503 0)
(-0.0165025 0.0317439 0)
(-0.00792195 0.0580024 0)
(0.00187931 0.0880445 0)
(0.0130598 0.122345 0)
(0.0257951 0.161349 0)
(0.0402776 0.205439 0)
(0.0567239 0.254887 0)
(0.0753765 0.309815 0)
(-0.00189988 -0.162057 0)
(-0.00512776 -0.180405 0)
(-0.00865998 -0.185911 0)
(-0.012262 -0.188196 0)
(-0.0159036 -0.189123 0)
(-0.0195324 -0.189284 0)
(-0.0231201 -0.188924 0)
(-0.0266427 -0.188158 0)
(-0.0300773 -0.18705 0)
(-0.0334017 -0.185634 0)
(-0.0365954 -0.183931 0)
(-0.0396389 -0.181956 0)
(-0.0425143 -0.179718 0)
(-0.0452048 -0.177221 0)
(-0.0476947 -0.174467 0)
(-0.0499691 -0.171458 0)
(-0.0520142 -0.168189 0)
(-0.0538169 -0.164657 0)
(-0.0553646 -0.160852 0)
(-0.0566451 -0.156766 0)
(-0.0576462 -0.152384 0)
(-0.0583556 -0.147687 0)
(-0.0587607 -0.142655 0)
(-0.058848 -0.13726 0)
(-0.0586028 -0.131469 0)
(-0.0580088 -0.125241 0)
(-0.0570475 -0.118526 0)
(-0.0556973 -0.11126 0)
(-0.0539324 -0.103367 0)
(-0.051722 -0.0947504 0)
(-0.0490285 -0.0852909 0)
(-0.0458062 -0.0748408 0)
(-0.0419993 -0.0632191 0)
(-0.03754 -0.0502066 0)
(-0.0323465 -0.0355415 0)
(-0.0263211 -0.0189182 0)
(-0.0193487 1.34042e-05 0)
(-0.0112952 0.0216446 0)
(-0.00200417 0.0464029 0)
(0.00870412 0.0747382 0)
(0.0210322 0.107101 0)
(0.035205 0.143912 0)
(0.0514682 0.185528 0)
(0.070094 0.232196 0)
(0.0913795 0.284009 0)
(-0.00182366 -0.158136 0)
(-0.00489158 -0.176209 0)
(-0.00826177 -0.181627 0)
(-0.011695 -0.183876 0)
(-0.0151651 -0.184805 0)
(-0.018623 -0.184999 0)
(-0.0220419 -0.184701 0)
(-0.0253993 -0.184026 0)
(-0.0286731 -0.183034 0)
(-0.0318425 -0.18176 0)
(-0.0348877 -0.180224 0)
(-0.0377902 -0.178438 0)
(-0.0405328 -0.176409 0)
(-0.0430992 -0.174141 0)
(-0.045474 -0.171635 0)
(-0.0476428 -0.168891 0)
(-0.0495918 -0.165903 0)
(-0.0513076 -0.162668 0)
(-0.0527775 -0.159176 0)
(-0.0539886 -0.155418 0)
(-0.0549283 -0.151378 0)
(-0.0555835 -0.147041 0)
(-0.0559402 -0.142384 0)
(-0.055984 -0.137383 0)
(-0.0556985 -0.132005 0)
(-0.0550659 -0.126212 0)
(-0.0540655 -0.119958 0)
(-0.0526732 -0.113185 0)
(-0.0508604 -0.105821 0)
(-0.0485925 -0.0977773 0)
(-0.0458275 -0.0889449 0)
(-0.0425141 -0.0791879 0)
(-0.0385894 -0.06834 0)
(-0.0339765 -0.0561991 0)
(-0.0285819 -0.0425239 0)
(-0.0222932 -0.0270312 0)
(-0.0149763 -0.00939594 0)
(-0.00647381 0.0107453 0)
(0.00339779 0.0337891 0)
(0.0148514 0.0601539 0)
(0.0281273 0.0902593 0)
(0.0434936 0.124497 0)
(0.0612426 0.163193 0)
(0.0816948 0.206568 0)
(0.105194 0.25469 0)
(-0.0017526 -0.154358 0)
(-0.00466901 -0.172169 0)
(-0.00788486 -0.177505 0)
(-0.0111551 -0.179724 0)
(-0.0144577 -0.180656 0)
(-0.0177465 -0.180882 0)
(-0.0209968 -0.180644 0)
(-0.0241872 -0.180056 0)
(-0.0272974 -0.179178 0)
(-0.0303077 -0.178041 0)
(-0.0331997 -0.176665 0)
(-0.0359559 -0.17506 0)
(-0.0385601 -0.173232 0)
(-0.0409968 -0.171184 0)
(-0.0432514 -0.168917 0)
(-0.0453096 -0.166427 0)
(-0.047158 -0.163712 0)
(-0.0487834 -0.160764 0)
(-0.0501727 -0.157577 0)
(-0.0513128 -0.154138 0)
(-0.0521905 -0.150435 0)
(-0.0527918 -0.146451 0)
(-0.0531021 -0.142166 0)
(-0.0531056 -0.137556 0)
(-0.0527849 -0.132591 0)
(-0.0521205 -0.127236 0)
(-0.0510901 -0.121449 0)
(-0.0496675 -0.115176 0)
(-0.0478216 -0.108353 0)
(-0.045515 -0.1009 0)
(-0.0427024 -0.0927178 0)
(-0.039328 -0.0836847 0)
(-0.0353236 -0.0736508 0)
(-0.0306056 -0.0624342 0)
(-0.0250718 -0.0498167 0)
(-0.0185985 -0.0355422 0)
(-0.0110374 -0.0193156 0)
(-0.00221313 -0.000806726 0)
(0.00807941 0.0203451 0)
(0.0200781 0.0445205 0)
(0.0340535 0.0721015 0)
(0.0503077 0.103444 0)
(0.0691708 0.138844 0)
(0.0910017 0.178493 0)
(0.116181 0.222437 0)
(-0.00168607 -0.150715 0)
(-0.00445993 -0.168277 0)
(-0.00752986 -0.17354 0)
(-0.0106441 -0.175736 0)
(-0.0137843 -0.176675 0)
(-0.0169075 -0.176936 0)
(-0.0199906 -0.176758 0)
(-0.0230142 -0.176256 0)
(-0.0259596 -0.175487 0)
(-0.0288087 -0.174482 0)
(-0.0315445 -0.17326 0)
(-0.0341511 -0.171829 0)
(-0.0366135 -0.170194 0)
(-0.0389171 -0.168357 0)
(-0.0410481 -0.166318 0)
(-0.0429932 -0.164074 0)
(-0.0447391 -0.16162 0)
(-0.0462727 -0.158951 0)
(-0.0475811 -0.156057 0)
(-0.0486509 -0.152929 0)
(-0.0494684 -0.149554 0)
(-0.050019 -0.145917 0)
(-0.0502875 -0.141997 0)
(-0.050257 -0.137774 0)
(-0.0499091 -0.13322 0)
(-0.0492231 -0.128302 0)
(-0.0481752 -0.122983 0)
(-0.0467377 -0.117216 0)
(-0.0448777 -0.110942 0)
(-0.0425558 -0.10409 0)
(-0.0397242 -0.0965746 0)
(-0.0363245 -0.0882872 0)
(-0.0322851 -0.0790962 0)
(-0.027518 -0.0688415 0)
(-0.0219157 -0.0573308 0)
(-0.0153475 -0.044338 0)
(-0.00765614 -0.0296021 0)
(0.00134541 -0.01283 0)
(0.0118769 0.00629864 0)
(0.0241924 0.0281216 0)
(0.0385826 0.0529784 0)
(0.0553735 0.0811852 0)
(0.0749212 0.113002 0)
(0.0976115 0.148596 0)
(0.123849 0.187992 0)
(-0.00162317 -0.147199 0)
(-0.00426366 -0.164525 0)
(-0.00719642 -0.169726 0)
(-0.0101622 -0.171907 0)
(-0.013146 -0.172859 0)
(-0.0161077 -0.173158 0)
(-0.0190264 -0.173044 0)
(-0.0218845 -0.172628 0)
(-0.0246652 -0.171966 0)
(-0.0273523 -0.17109 0)
(-0.0299307 -0.170016 0)
(-0.032386 -0.168751 0)
(-0.0347047 -0.167301 0)
(-0.0368735 -0.165665 0)
(-0.0388798 -0.163844 0)
(-0.0407108 -0.161834 0)
(-0.0423541 -0.15963 0)
(-0.0437968 -0.157228 0)
(-0.045026 -0.154617 0)
(-0.0460283 -0.15179 0)
(-0.0467896 -0.148733 0)
(-0.0472951 -0.145432 0)
(-0.0475287 -0.14187 0)
(-0.0474729 -0.138027 0)
(-0.0471085 -0.133878 0)
(-0.0464138 -0.129395 0)
(-0.045364 -0.124543 0)
(-0.0439302 -0.11928 0)
(-0.0420784 -0.113558 0)
(-0.0397683 -0.107314 0)
(-0.0369506 -0.100473 0)
(-0.0335658 -0.0929435 0)
(-0.0295407 -0.0846115 0)
(-0.0247858 -0.07534 0)
(-0.0191917 -0.0649642 0)
(-0.0126251 -0.0532897 0)
(-0.00492532 -0.040092 0)
(0.00409944 -0.0251181 0)
(0.0146752 -0.00809125 0)
(0.0270639 0.011281 0)
(0.0415651 0.0332915 0)
(0.0585163 0.0582129 0)
(0.0782873 0.0862689 0)
(0.101278 0.117598 0)
(0.127903 0.152212 0)
(-0.00156296 -0.143804 0)
(-0.00407931 -0.160904 0)
(-0.0068836 -0.166055 0)
(-0.00970861 -0.16823 0)
(-0.0125423 -0.169204 0)
(-0.0153473 -0.169549 0)
(-0.0181048 -0.169502 0)
(-0.0207994 -0.169173 0)
(-0.0234164 -0.168619 0)
(-0.0259418 -0.167869 0)
(-0.0283625 -0.166937 0)
(-0.0306661 -0.165832 0)
(-0.0328407 -0.164557 0)
(-0.0348746 -0.163113 0)
(-0.0367562 -0.161498 0)
(-0.038474 -0.15971 0)
(-0.040016 -0.157744 0)
(-0.0413701 -0.155595 0)
(-0.0425235 -0.153254 0)
(-0.0434629 -0.150714 0)
(-0.044174 -0.147963 0)
(-0.0446416 -0.144988 0)
(-0.0448493 -0.141774 0)
(-0.0447791 -0.138302 0)
(-0.044411 -0.13455 0)
(-0.0437228 -0.130494 0)
(-0.0426889 -0.126103 0)
(-0.0412801 -0.121343 0)
(-0.0394618 -0.11617 0)
(-0.0371933 -0.110532 0)
(-0.0344253 -0.104366 0)
(-0.0310984 -0.0975951 0)
(-0.0271401 -0.090125 0)
(-0.0224618 -0.0818411 0)
(-0.0169553 -0.0726063 0)
(-0.0104892 -0.0622585 0)
(-0.00290479 -0.0506106 0)
(0.00598772 -0.0374511 0)
(0.0164122 -0.022548 0)
(0.0286292 -0.00565661 0)
(0.0429369 0.0134685 0)
(0.0596713 0.0350543 0)
(0.0792026 0.0592855 0)
(0.10193 0.0862739 0)
(0.128267 0.116019 0)
(-0.0015048 -0.140523 0)
(-0.00390607 -0.157405 0)
(-0.00659009 -0.162518 0)
(-0.00928167 -0.164701 0)
(-0.0119712 -0.165708 0)
(-0.0146241 -0.166106 0)
(-0.0172238 -0.166132 0)
(-0.0197572 -0.165894 0)
(-0.022212 -0.165447 0)
(-0.0245767 -0.16482 0)
(-0.0268405 -0.164027 0)
(-0.0289929 -0.163074 0)
(-0.031024 -0.161966 0)
(-0.0329238 -0.160702 0)
(-0.0346822 -0.159281 0)
(-0.0362887 -0.157702 0)
(-0.0377323 -0.155959 0)
(-0.0390014 -0.154049 0)
(-0.0400837 -0.151964 0)
(-0.040966 -0.149697 0)
(-0.0416342 -0.147238 0)
(-0.0420727 -0.144576 0)
(-0.0422649 -0.141696 0)
(-0.0421925 -0.138582 0)
(-0.0418352 -0.135217 0)
(-0.0411704 -0.131578 0)
(-0.0401724 -0.127639 0)
(-0.0388117 -0.123372 0)
(-0.0370539 -0.118739 0)
(-0.0348588 -0.113699 0)
(-0.0321781 -0.1082 0)
(-0.0289539 -0.102179 0)
(-0.0251159 -0.0955607 0)
(-0.0205789 -0.0882519 0)
(-0.015239 -0.0801426 0)
(-0.00897032 -0.0711025 0)
(-0.00162104 -0.060981 0)
(0.00699034 -0.0496076 0)
(0.0170782 -0.0367951 0)
(0.0288923 -0.022346 0)
(0.0427193 -0.00606338 0)
(0.0588826 0.0122349 0)
(0.0777392 0.0326941 0)
(0.0996747 0.0553982 0)
(0.125087 0.0803348 0)
(-0.00144868 -0.137352 0)
(-0.00374334 -0.154021 0)
(-0.00631427 -0.15911 0)
(-0.00887878 -0.161315 0)
(-0.0114295 -0.162367 0)
(-0.0139343 -0.162829 0)
(-0.0163791 -0.162934 0)
(-0.0187537 -0.16279 0)
(-0.0210481 -0.162452 0)
(-0.0232535 -0.161946 0)
(-0.0253615 -0.161287 0)
(-0.0273641 -0.160479 0)
(-0.0292532 -0.159528 0)
(-0.0310208 -0.158433 0)
(-0.0326582 -0.157193 0)
(-0.0341563 -0.155808 0)
(-0.0355051 -0.154273 0)
(-0.0366938 -0.152586 0)
(-0.0377107 -0.150741 0)
(-0.0385428 -0.148731 0)
(-0.0391761 -0.146548 0)
(-0.0395953 -0.144181 0)
(-0.0397834 -0.141621 0)
(-0.0397222 -0.138851 0)
(-0.0393913 -0.135858 0)
(-0.0387679 -0.132621 0)
(-0.0378266 -0.129121 0)
(-0.0365382 -0.125333 0)
(-0.0348691 -0.121227 0)
(-0.0327801 -0.11677 0)
(-0.0302249 -0.111921 0)
(-0.0271481 -0.106631 0)
(-0.0234834 -0.100841 0)
(-0.0191507 -0.0944786 0)
(-0.0140527 -0.0874594 0)
(-0.00807247 -0.0796827 0)
(-0.00106899 -0.0710322 0)
(0.0071259 -0.0613766 0)
(0.0167108 -0.0505711 0)
(0.027917 -0.0384637 0)
(0.0410105 -0.0249036 0)
(0.0562917 -0.00975361 0)
(0.0740932 0.00709401 0)
(0.0947741 0.0256952 0)
(0.118705 0.046026 0)
(-0.00139514 -0.134285 0)
(-0.00359054 -0.150745 0)
(-0.00605392 -0.155825 0)
(-0.00849622 -0.158067 0)
(-0.0109119 -0.159178 0)
(-0.0132718 -0.159715 0)
(-0.0155644 -0.159908 0)
(-0.0177821 -0.159864 0)
(-0.0199179 -0.159636 0)
(-0.0219657 -0.15925 0)
(-0.0239198 -0.158718 0)
(-0.0257743 -0.158049 0)
(-0.0275236 -0.157244 0)
(-0.0291615 -0.156305 0)
(-0.030681 -0.155233 0)
(-0.0320743 -0.154025 0)
(-0.0333326 -0.152682 0)
(-0.0344461 -0.151201 0)
(-0.0354037 -0.149577 0)
(-0.0361929 -0.147805 0)
(-0.0368001 -0.145879 0)
(-0.03721 -0.143791 0)
(-0.037406 -0.141532 0)
(-0.0373697 -0.139089 0)
(-0.037081 -0.136449 0)
(-0.0365175 -0.133598 0)
(-0.0356541 -0.130518 0)
(-0.0344625 -0.127191 0)
(-0.0329102 -0.123592 0)
(-0.0309598 -0.119697 0)
(-0.0285675 -0.115473 0)
(-0.0256818 -0.110885 0)
(-0.022241 -0.105888 0)
(-0.0181716 -0.10043 0)
(-0.013385 -0.0944481 0)
(-0.00777525 -0.0878687 0)
(-0.00121521 -0.080607 0)
(0.00644631 -0.0725668 0)
(0.0153874 -0.0636427 0)
(0.0258155 -0.0537243 0)
(0.0379688 -0.0427033 0)
(0.0521163 -0.0304836 0)
(0.0685571 -0.0169946 0)
(0.0876125 -0.00220667 0)
(0.109615 0.0138441 0)
(-0.00134482 -0.131315 0)
(-0.00344644 -0.147571 0)
(-0.00580561 -0.152658 0)
(-0.00812858 -0.154955 0)
(-0.0104117 -0.156141 0)
(-0.0126286 -0.156765 0)
(-0.0147707 -0.157055 0)
(-0.0168332 -0.157116 0)
(-0.0188122 -0.156999 0)
(-0.0207044 -0.156731 0)
(-0.0225066 -0.156323 0)
(-0.0242155 -0.155783 0)
(-0.0258278 -0.155114 0)
(-0.0273391 -0.154318 0)
(-0.0287442 -0.153397 0)
(-0.0300368 -0.152352 0)
(-0.0312095 -0.151182 0)
(-0.0322533 -0.149887 0)
(-0.033158 -0.148464 0)
(-0.0339118 -0.146911 0)
(-0.0345014 -0.145222 0)
(-0.0349121 -0.143392 0)
(-0.0351275 -0.141412 0)
(-0.0351297 -0.139274 0)
(-0.0348989 -0.136968 0)
(-0.0344132 -0.134481 0)
(-0.0336484 -0.131799 0)
(-0.0325772 -0.128909 0)
(-0.0311689 -0.125792 0)
(-0.0293883 -0.12243 0)
(-0.0271947 -0.1188 0)
(-0.0245407 -0.114876 0)
(-0.0213706 -0.110629 0)
(-0.0176181 -0.10602 0)
(-0.0132046 -0.101008 0)
(-0.00803628 -0.0955431 0)
(-0.00200189 -0.0895666 0)
(0.0050307 -0.0830137 0)
(0.0132164 -0.0758135 0)
(0.0227349 -0.0678923 0)
(0.0337925 -0.0591792 0)
(0.046622 -0.0496145 0)
(0.0614821 -0.0391597 0)
(0.0786498 -0.0278109 0)
(0.0984113 -0.0156164 0)
(-0.00129746 -0.128438 0)
(-0.00330812 -0.144499 0)
(-0.00556382 -0.149611 0)
(-0.00776817 -0.15198 0)
(-0.00991938 -0.153257 0)
(-0.0119942 -0.153981 0)
(-0.0139869 -0.154376 0)
(-0.0158958 -0.154547 0)
(-0.0177199 -0.154544 0)
(-0.0194586 -0.15439 0)
(-0.0211116 -0.1541 0)
(-0.022678 -0.15368 0)
(-0.0241565 -0.153135 0)
(-0.0255449 -0.152469 0)
(-0.0268397 -0.151684 0)
(-0.0280361 -0.150783 0)
(-0.029128 -0.149767 0)
(-0.0301076 -0.148638 0)
(-0.0309656 -0.147395 0)
(-0.031691 -0.146038 0)
(-0.0322713 -0.144563 0)
(-0.0326921 -0.142967 0)