/*--------------------------------*- C++ -*----------------------------------*\
| =========                 |                                                 |
| \\      /  F ield         | OpenFOAM: The Open Source CFD Toolbox           |
|  \\    /   O peration     | Version:  5.0                                   |
|   \\  /    A nd           | Web:      www.OpenFOAM.org                      |
|    \\/     M anipulation  |                                                 |
\*---------------------------------------------------------------------------*/
FoamFile
{
    version     2.0;
    format      ascii;
    class       volScalarField;
    location    "0.1";
    object      alpha.water;
}
// * * * * * * * * * * * * * * * * * * * * * * * * * * * * * * * * * * * * * //

dimensions      [0 0 0 0 0 0 0];

internalField   nonuniform List<scalar> 
1915
(
0.999889
0.999886
0.999894
0.312756
0.000123799
3.19177e-08
3.53093e-08
1.15877e-10
3.48336e-12
5.47603e-12
3.76402e-12
3.25955e-13
1.67009e-14
7.85283e-16
3.71815e-17
1.85665e-18
9.81146e-20
5.46694e-21
3.19505e-22
1.9531e-23
1.24855e-24
8.2219e-26
5.53623e-27
3.78752e-28
2.61848e-29
1.00023
0.994386
0.995642
0.997551
0.998562
0.999075
0.99934
0.999496
0.999588
0.999641
0.999668
0.999679
0.999677
0.999667
0.999648
0.999625
0.999596
0.999565
0.999532
0.999501
0.999479
0.99947
0.999508
0.241034
6.80595e-05
6.63033e-07
1.01347e-08
3.68549e-11
1.33675e-11
5.99199e-12
1.87234e-12
9.23028e-14
3.78063e-15
1.6136e-16
7.05381e-18
3.28469e-19
1.63327e-20
8.62462e-22
4.80179e-23
2.80696e-24
1.71682e-25
1.08352e-26
7.00763e-28
4.63009e-29
3.1301e-30
0.835286
0.936779
0.982832
0.990421
0.994104
0.99604
0.997064
0.997688
0.998062
0.998281
0.998396
0.998439
0.99843
0.998382
0.998303
0.998199
0.998076
0.997942
0.997803
0.99767
0.99757
0.997546
0.99772
0.179904
2.92632e-05
9.33151e-08
9.43518e-10
8.52919e-11
2.4831e-11
4.84225e-12
5.49591e-13
1.98094e-14
7.33374e-16
2.9112e-17
1.20447e-18
5.34247e-20
2.53861e-21
1.28404e-22
6.86202e-24
3.8532e-25
2.26225e-26
1.37275e-27
8.54917e-29
5.44265e-30
3.53018e-31
0.203017
0.389012
0.602762
0.788165
0.900379
0.957483
0.979128
0.988507
0.990883
0.991775
0.992244
0.992412
0.99236
0.992143
0.991795
0.991346
0.990823
0.989623
0.987738
0.985612
0.983226
0.982731
0.987048
0.128946
-6.17401e-06
-7.63424e-08
3.48782e-10
3.0434e-11
1.71602e-11
2.2897e-12
1.02465e-13
3.48231e-15
1.25013e-16
4.7491e-18
1.89045e-19
8.0677e-21
3.68811e-22
1.79585e-23
9.24996e-25
5.01188e-26
2.84332e-27
1.66868e-28
1.00531e-29
6.18442e-31
3.85784e-32
-1.1186e-21
0.00863436
0.0545083
0.150631
0.277529
0.410935
0.518962
0.59504
0.645101
0.675269
0.690392
0.694283
0.68986
0.67924
0.663808
0.644854
0.623463
0.601155
0.579013
0.557449
0.537382
0.531367
0.594153
0.0704631
-1.00135e-05
-2.93861e-09
7.99606e-11
5.84281e-12
4.64133e-12
5.29889e-13
1.52247e-14
5.38359e-16
1.91191e-17
7.06503e-19
2.72765e-20
1.1264e-21
4.97946e-23
2.34563e-24
1.16978e-25
6.14196e-27
3.37789e-28
1.92257e-29
1.12341e-30
6.70278e-32
4.04745e-33
-5.78544e-18
-3.98116e-24
-4.24848e-22
-3.24383e-17
-1.3254e-12
-3.16363e-09
0.0112959
0.0286045
0.0448126
0.0561248
0.0622955
0.0639215
0.0619191
0.0573446
0.0510431
0.0438022
0.0362236
0.0288635
0.0220383
0.0163915
0.0127038
0.0104718
0.0312372
0.0163671
7.22433e-06
-2.49401e-10
6.1688e-11
3.07361e-12
4.16037e-13
6.55498e-14
1.993e-15
7.30109e-17
2.58244e-18
9.39764e-20
3.55356e-21
1.43249e-22
6.1723e-24
2.83236e-25
1.37585e-26
7.03617e-28
3.76835e-29
2.08844e-30
1.18801e-31
6.89798e-33
4.04141e-34
-8.84549e-18
-6.12373e-16
-1.04211e-13
-2.57383e-12
-3.03446e-11
-3.651e-10
-3.45092e-12
-1.77633e-10
-3.66267e-09
-7.97149e-09
-1.5867e-08
-2.16339e-08
-1.65481e-08
-9.74241e-09
-2.89058e-08
-1.59357e-08
-7.49436e-09
-3.24925e-09
-1.34006e-09
-1.64149e-10
-1.61958e-11
-1.08466e-11
0
0
-3.39499e-07
2.01675e-12
2.23424e-11
1.20478e-12
3.91418e-14
5.86685e-15
2.13779e-16
8.19016e-18
2.9543e-19
1.08209e-20
4.08082e-22
1.62997e-23
6.92898e-25
3.12811e-26
1.4921e-27
7.48262e-29
3.92482e-30
2.12827e-31
1.18349e-32
6.71077e-34
3.82622e-35
-4.69673e-18
-4.93962e-16
-8.39974e-14
-2.99619e-12
-4.2014e-11
-5.96166e-10
-4.67947e-19
-1.95431e-17
-5.77201e-16
-1.22333e-14
-9.33217e-14
-7.48932e-13
-3.87372e-11
-1.63764e-09
-4.48291e-08
-2.50028e-08
-1.19299e-08
-5.26513e-09
-2.21291e-09
-5.02202e-10
-1.93145e-11
-3.77771e-11
-4.29506e-10
-2.63452e-09
-6.20368e-09
0
1.39396e-12
1.26454e-13
3.22922e-15
3.28136e-16
1.46605e-17
6.74001e-19
2.67181e-20
1.02954e-21
3.99985e-23
1.62168e-24
6.9259e-26
3.11927e-27
1.47708e-28
7.32725e-30
3.79093e-31
2.02317e-32
1.10522e-33
6.14587e-35
3.42204e-36
-2.92876e-67
-6.80961e-48
-7.06416e-81
-7.57236e-115
-2.54569e-90
1.081e-47
5.89314e-30
1.32833e-43
1.41684e-42
4.53402e-41
-6.48032e-46
-2.69985e-44
-7.42859e-37
-4.40028e-41
-3.04535e-40
2.28206e-33
-2.78726e-38
-5.30002e-34
-2.12656e-29
-7.86552e-25
1.18397e-13
1.10685e-11
1.87287e-10
4.22178e-10
3.66754e-11
2.98762e-13
8.92353e-15
1.70772e-15
1.49675e-16
1.31953e-17
5.94571e-19
2.80872e-20
1.44235e-21
7.12087e-23
3.14898e-24
1.35839e-25
6.00724e-27
2.75735e-28
1.3167e-29
6.53824e-31
3.36762e-32
1.78196e-33
9.62094e-35
5.27325e-36
2.87898e-37
4.95238e-41
5.06592e-39
3.84684e-37
3.10446e-35
2.19177e-33
9.75021e-32
3.50541e-30
1.0477e-28
2.97685e-27
8.86194e-26
2.19414e-24
4.65391e-23
8.77586e-22
1.56827e-20
2.81919e-19
3.81163e-18
4.63966e-17
7.72116e-16
1.40653e-14
9.52578e-14
2.45157e-13
3.54334e-12
3.75884e-11
9.26886e-11
8.3807e-11
3.52064e-16
1.66499e-16
6.26832e-17
-1.05616e-17
1.13334e-18
4.83841e-20
1.2172e-21
8.80982e-23
3.59492e-24
1.57237e-25
8.4898e-27
4.28021e-28
2.09769e-29
1.03599e-30
5.24103e-32
2.72218e-33
1.44215e-34
7.75471e-36
4.21544e-37
2.26742e-38
-3.43128e-47
1.82391e-40
1.85378e-38
1.54145e-36
1.29039e-34
9.67831e-33
5.58434e-31
2.30858e-29
4.76266e-28
8.09509e-27
1.16227e-25
1.37607e-24
1.21721e-23
4.95952e-23
4.36642e-23
2.5834e-20
2.74999e-19
4.83164e-16
1.747e-14
9.30601e-14
1.56482e-13
1.51927e-13
4.582e-14
1.59995e-16
1.21137e-16
3.38455e-16
2.89297e-17
6.47515e-18
1.05207e-18
1.47797e-19
6.43485e-21
2.51278e-22
8.96079e-24
3.21821e-25
1.23425e-26
5.24596e-28
2.36005e-29
1.24654e-30
6.88079e-32
3.69386e-33
1.97295e-34
1.06094e-35
5.74001e-37
3.11908e-38
1.66245e-39
-4.49323e-42
7.91519e-41
6.88858e-39
3.9518e-37
-9.00316e-36
-2.71765e-33
-1.37686e-31
-4.36257e-30
-1.12883e-28
-2.21308e-27
-3.75929e-26
-5.6835e-25
-7.65653e-24
-8.4009e-23
-5.41922e-22
-3.7746e-21
-1.52291e-20
5.18701e-19
5.95932e-17
6.38532e-16
1.76794e-15
2.37512e-15
1.991e-15
5.363e-16
1.17755e-16
5.8539e-17
9.64436e-19
3.42e-19
6.52409e-20
1.27898e-20
5.7253e-22
2.29832e-23
8.60376e-25
3.16998e-26
1.1982e-27
4.63108e-29
1.91918e-30
8.60567e-32
4.10552e-33
2.13132e-34
1.23888e-35
6.98521e-37
3.86006e-38
2.11896e-39
1.12724e-40
-3.84853e-43
-1.89478e-41
-8.99057e-40
-2.62522e-38
7.10112e-38
1.5745e-36
3.42245e-35
5.96644e-34
7.94491e-33
1.46487e-31
1.32843e-30
7.50464e-30
-4.90638e-29
-2.52361e-27
-4.41321e-26
3.79102e-25
6.20908e-24
6.92041e-21
5.01148e-19
3.97202e-18
9.97993e-18
1.3245e-17
1.29691e-17
7.27716e-18
5.04808e-18
2.3885e-18
4.84257e-20
1.26788e-20
3.24622e-21
8.49621e-22
4.45219e-23
1.84994e-24
7.07559e-26
2.63785e-27
1.00715e-28
3.99956e-30
1.6617e-31
7.12538e-33
3.19909e-34
1.51994e-35
7.61213e-37
3.94497e-38
2.2991e-39
1.30679e-40
7.01035e-42
2.17756e-48
5.71951e-45
2.85026e-43
1.02167e-41
9.37756e-41
2.52122e-39
-5.07027e-38
-3.07601e-36
-4.97781e-35
-1.16522e-33
-1.96714e-32
-2.89288e-31
-3.87647e-30
-4.73715e-29
-1.74414e-28
2.43199e-27
1.87845e-26
1.74603e-24
1.57765e-22
1.93927e-21
1.09426e-20
4.15447e-20
1.0371e-19
1.61047e-19
1.70584e-19
6.00831e-20
2.16112e-21
3.57977e-22
1.2551e-22
3.93476e-23
2.94765e-24
1.2993e-25
5.13579e-27
1.95642e-28
7.56916e-30
3.02754e-31
1.26233e-32
5.48199e-34
2.47975e-35
1.16051e-36
5.54279e-38
2.72221e-39
1.38646e-40
7.16803e-42
3.91704e-43
1.22788e-50
2.69968e-47
1.309e-45
5.11131e-44
1.54057e-42
-1.48089e-40
-5.33509e-39
-1.10193e-37
-1.93938e-36
-2.81231e-35
-3.65198e-34
-4.37151e-33
-4.76312e-32
-3.56627e-31
1.36532e-30
1.49311e-29
1.18e-28
2.30073e-27
1.25775e-25
1.95496e-24
2.77134e-23
3.04111e-22
1.41159e-21
2.83147e-21
3.27632e-21
1.43689e-21
6.607e-23
9.40866e-24
3.58679e-24
1.39286e-24
1.31903e-25
7.8965e-27
3.25752e-28
1.28256e-29
5.07806e-31
2.06329e-32
8.68999e-34
3.79535e-35
1.72068e-36
8.08153e-38
3.89011e-39
1.90253e-40
9.34251e-42
4.61072e-43
2.27392e-44
2.54365e-53
7.263e-50
4.12549e-48
1.64701e-46
5.11667e-45
1.30475e-43
2.74062e-42
4.99469e-41
7.59847e-40
1.16857e-38
1.58219e-37
2.0072e-36
2.31052e-35
2.4126e-34
3.88668e-33
3.83502e-32
5.46862e-31
3.99214e-29
9.08392e-28
1.1227e-26
1.41756e-25
1.88038e-24
1.20285e-23
2.96947e-23
3.75862e-23
2.17264e-23
2.01789e-24
2.03839e-25
7.47438e-26
3.83231e-26
4.35755e-27
3.32015e-28
1.78677e-29
7.37191e-31
3.01901e-32
1.25794e-33
5.39556e-35
2.38691e-36
1.09122e-37
5.14866e-39
2.48268e-40
1.21427e-41
5.99359e-43
2.948e-44
1.41731e-45
1.20143e-56
-2.91949e-53
-1.27145e-51
1.8088e-51
1.08048e-48
-9.90661e-48
-2.52657e-45
-1.33566e-43
-2.19424e-42
-3.39862e-41
-4.31538e-40
-5.36458e-39
-6.58204e-38
-7.9761e-37
2.78799e-36
2.75031e-35
1.76864e-33
1.92699e-31
3.2191e-30
3.70446e-29
4.12061e-28
5.4456e-27
4.82325e-26
1.62722e-25
2.4472e-25
2.37127e-25
6.83755e-26
5.23191e-27
2.06216e-27
7.28684e-28
1.13754e-28
1.03215e-29
6.72205e-31
3.47215e-32
1.581e-33
6.82003e-35
3.00521e-36
1.3569e-37
6.29761e-39
3.00298e-40
1.4579e-41
7.15675e-43
3.5353e-44
1.73576e-45
8.36568e-47
9.91253e-60
-4.31418e-56
-3.14782e-55
2.32709e-53
1.66763e-51
-2.41855e-49
-1.31699e-47
-2.46078e-46
-3.7015e-45
-4.5451e-44
-5.01259e-43
-5.78224e-42
-6.15039e-41
2.43012e-40
4.23398e-39
4.80548e-38
3.41496e-36
1.7586e-34
2.71189e-33
3.15844e-32
3.06233e-31
2.8629e-30
3.40355e-29
3.40986e-28
1.3133e-27
2.04253e-27
1.62634e-27
1.40465e-28
4.97086e-29
9.94696e-30
2.26296e-30
2.56612e-31
1.9508e-32
1.17173e-33
6.08e-35
2.95911e-36
1.41226e-37
6.74006e-39
3.24029e-40
1.58049e-41
7.83081e-43
3.88829e-44
1.9309e-45
9.49629e-47
4.58034e-48
1.6147e-63
-1.44483e-59
-6.00688e-58
-1.22117e-56
-4.49073e-57
9.2728e-54
3.87607e-52
8.19007e-51
1.25535e-49
2.60854e-48
4.44805e-47
6.34166e-46
8.43054e-45
1.05279e-43
1.11273e-42
4.48262e-41
1.02419e-38
3.10728e-37
4.68876e-36
5.58461e-35
5.63509e-34
5.4007e-33
6.41328e-32
7.52265e-31
3.73213e-30
7.05781e-30
7.60399e-30
3.37995e-30
1.08376e-30
8.90138e-32
3.30043e-32
4.96482e-33
4.62361e-34
3.20292e-35
1.86955e-36
1.0059e-37
5.18939e-39
2.63417e-40
1.33071e-41
6.75191e-43
3.45557e-44
1.77099e-45
9.05246e-47
4.60229e-48
2.2546e-49
3.73331e-67
1.49834e-64
1.61557e-62
1.97384e-60
1.25527e-58
4.56467e-57
1.0918e-55
4.60882e-55
2.48877e-53
1.11922e-51
1.85207e-50
2.77903e-49
3.88915e-48
5.11063e-47
5.71971e-46
2.16462e-44
3.93852e-42
1.03072e-40
1.57875e-39
1.97444e-38
2.15698e-37
2.09337e-36
1.89222e-35
2.00222e-34
2.63585e-33
1.77276e-32
4.15136e-32
4.762e-32
1.50572e-32
4.24708e-34
3.38274e-34
7.14477e-35
8.68072e-36
7.23383e-37
4.85125e-38
2.90385e-39
1.63252e-40
8.88896e-42
4.75882e-43
2.53347e-44
1.34873e-45
7.14774e-47
3.75776e-48
1.95753e-49
9.7426e-51
5.83903e-71
-6.04644e-67
-2.74275e-65
-1.01309e-64
1.40819e-62
8.47902e-61
-4.30141e-59
-2.40972e-58
8.05577e-57
2.83613e-55
4.80839e-54
7.56012e-53
1.11136e-51
1.53779e-50
1.82776e-49
1.18865e-47
2.41261e-45
5.91492e-44
9.33316e-43
1.22145e-41
1.41012e-40
1.46537e-39
1.40484e-38
1.3876e-37
1.60697e-36
1.56352e-35
7.36995e-35
1.66759e-34
1.98531e-34
4.20198e-36
1.89364e-36
7.57841e-37
1.25554e-37
1.31466e-38
1.04478e-39
7.13054e-41
4.44862e-42
2.6349e-43
1.5112e-44
8.51616e-46
4.75273e-47
2.61878e-48
1.42169e-49
7.60222e-51
3.85725e-52
2.39195e-75
-2.46735e-71
-1.11377e-69
-1.69052e-68
3.26058e-67
3.8466e-65
1.7504e-63
4.1377e-62
8.71214e-61
1.64574e-59
2.87602e-58
4.70405e-57
7.26461e-56
1.06945e-54
1.37874e-53
2.87511e-51
7.45253e-49
1.91223e-47
3.198e-46
4.46367e-45
5.54777e-44
6.31729e-43
6.62985e-42
6.4479e-41
6.7856e-40
1.06778e-38
1.21075e-37
4.24769e-37
5.74907e-37
2.28418e-37
4.77818e-39
5.32963e-39
1.3388e-39
1.87994e-40
1.83748e-41
1.46733e-42
1.03569e-43
6.77465e-45
4.21424e-46
2.54e-47
1.49918e-48
8.65743e-50
4.88876e-51
2.7024e-52
1.40571e-53
2.82662e-79
1.45023e-75
1.26038e-73
8.00481e-72
3.52085e-70
1.2819e-68
3.98293e-67
1.02645e-65
2.34162e-64
4.8342e-63
9.16112e-62
1.61184e-60
2.65725e-59
4.13023e-58
5.58087e-57
2.98283e-55
6.91568e-53
1.8903e-51
3.36837e-50
5.02029e-49
6.67901e-48
8.17453e-47
9.36119e-46
1.00727e-44
1.01552e-43
1.05501e-42
1.53299e-41
2.08407e-40
1.10115e-39
1.90176e-39
2.25005e-40
1.30744e-41
8.09043e-42
1.51988e-42
2.59027e-43
2.49926e-44
2.04194e-45
1.50091e-46
1.02668e-47
6.69331e-49
4.21814e-50
2.57391e-51
1.52271e-52
8.75692e-54
4.69564e-55
1.01753e-83
-9.98883e-80
-4.0828e-78
-5.41154e-78
7.82414e-75
5.05918e-73
1.9572e-71
5.30389e-70
1.25982e-68
2.7056e-67
5.3582e-66
9.95614e-65
1.74381e-63
2.89794e-62
4.24833e-61
6.35754e-59
2.17687e-56
6.66387e-55
1.28494e-53
2.06394e-52
2.95978e-51
3.91056e-50
4.84476e-49
5.65647e-48
6.19819e-47
6.93749e-46
1.07561e-44
1.69683e-43
1.011e-42
2.48883e-42
3.66045e-42
1.9613e-44
4.75085e-44
1.63295e-44
2.85421e-45
3.46913e-46
3.37322e-47
2.844e-48
2.17296e-49
1.5517e-50
1.05504e-51
6.86298e-53
4.28615e-54
2.58178e-55
1.43538e-56
2.22197e-88
4.50965e-85
7.66178e-83
7.07381e-81
4.16916e-79
1.86723e-77
6.40939e-76
1.83891e-74
4.6323e-73
1.05179e-71
2.2177e-70
4.38302e-69
8.18302e-68
1.45798e-66
2.31122e-65
3.14195e-63
1.44226e-60
5.461e-59
1.16433e-57
2.03975e-56
3.1824e-55
4.57798e-54
6.19128e-53
7.97402e-52
9.82866e-51
1.14833e-49
1.34692e-48
2.25759e-47
4.6469e-46
3.49692e-45
7.35018e-45
3.85596e-45
8.94329e-47
8.93814e-47
2.37135e-47
3.84502e-48
4.6121e-49
4.56905e-50
3.97083e-51
3.15021e-52
2.33767e-53
1.63667e-54
1.08795e-55
6.91351e-57
4.00943e-58
-2.06345e-102
1.19101e-88
1.25284e-86
9.03039e-85
4.71365e-83
2.02132e-81
6.76188e-80
2.18843e-78
5.99556e-77
1.49048e-75
3.40658e-74
7.246e-73
1.44782e-71
2.73638e-70
4.59017e-69
1.647e-67
6.68784e-65
3.35956e-63
7.98607e-62
1.52787e-60
2.5855e-59
4.02181e-58
5.87086e-57
8.15054e-56
1.08607e-54
1.39256e-53
1.71249e-52
2.1333e-51
3.42421e-50
6.42229e-49
6.79658e-48
1.99803e-47
8.49721e-49
2.21299e-49
1.41206e-49
3.30894e-50
5.13164e-51
6.15893e-52
6.22076e-53
5.57269e-54
4.57169e-55
3.48143e-56
2.48509e-57
1.67881e-58
1.0221e-59
1.77958e-106
6.69627e-94
8.7824e-92
8.72708e-90
7.83766e-88
2.63619e-86
1.14577e-84
5.38493e-83
1.55861e-81
4.06774e-80
9.82601e-79
2.22695e-77
4.77604e-76
9.75942e-75
1.7912e-73
5.19721e-72
4.32974e-69
5.08609e-67
1.41282e-65
3.01593e-64
5.62461e-63
9.60593e-62
1.53853e-60
2.3452e-59
3.4383e-58
4.87426e-57
6.62133e-56
8.86724e-55
1.58266e-53
4.2098e-52
4.4492e-51
1.55548e-50
3.1153e-50
2.3917e-52
5.39806e-52
2.1197e-52
4.54754e-53
6.87699e-54
8.28582e-55
8.54218e-56
7.86097e-57
6.58741e-58
5.09824e-59
3.69167e-60
2.37543e-61
-7.24496e-114
-2.69219e-98
-2.88151e-96
1.16203e-94
6.01222e-93
5.1341e-92
4.0432e-89
1.3684e-87
4.32115e-86
1.21721e-84
3.17529e-83
7.76287e-82
1.79379e-80
3.9442e-79
8.29208e-78
1.57989e-76
3.53305e-74
1.73121e-71
6.12318e-70
1.48836e-68
3.08766e-67
5.81885e-66
1.02549e-64
1.71881e-63
2.77117e-62
4.3355e-61
6.61825e-60
9.78723e-59
1.41766e-57
2.58608e-56
7.97867e-55
1.31362e-53
4.65987e-53
3.18822e-53
9.47397e-55
9.62843e-55
3.11473e-55
6.25694e-56
9.29265e-57
1.12753e-57
1.18355e-58
1.10569e-59
9.37641e-61
7.34233e-62
5.02899e-63
-3.84741e-104
-3.34883e-102
-5.42899e-101
1.57876e-98
1.01844e-96
5.07661e-95
2.24992e-93
8.40873e-92
2.87575e-90
8.84019e-89
2.51026e-87
6.653e-86
1.65917e-84
3.92034e-83
8.8284e-82
1.79839e-80
9.62325e-79
5.59822e-76
2.95191e-74
8.36097e-73
1.94366e-71
4.04461e-70
7.8121e-69
1.42833e-67
2.50338e-66
4.24455e-65
7.01019e-64
1.12985e-62
1.76978e-61
2.81234e-60
5.63543e-59
1.43631e-57
2.67872e-56
1.28331e-55
8.03806e-57
2.41613e-57
1.5823e-57
4.53822e-58
8.66893e-59
1.27245e-59
1.55336e-60
1.64172e-61
1.5433e-62
1.3195e-63
9.69315e-65
1.38889e-121
1.14658e-107
1.78912e-105
1.75222e-103
1.22497e-101
5.17563e-100
3.0873e-98
1.22884e-96
4.40003e-95
1.44262e-93
4.39233e-92
1.25501e-90
3.39265e-89
8.73348e-88
2.15232e-86
5.04986e-85
1.17517e-83
6.16229e-81
2.28602e-78
8.31488e-77
2.24748e-75
5.29023e-74
1.14373e-72
2.33061e-71
4.54562e-70
8.57519e-69
1.57736e-67
2.84555e-66
5.00909e-65
8.59592e-64
1.77352e-62
6.90067e-61
1.4442e-59
8.0129e-59
2.05639e-58
3.0638e-60
5.15413e-60
2.54456e-60
6.6242e-61
1.21748e-61
1.76851e-62
2.15026e-63
2.2698e-64
2.14111e-65
1.70287e-66
-1.2764e-125
2.18475e-112
3.20926e-110
3.17252e-108
5.31975e-107
1.37692e-104
6.91323e-103
3.01861e-101
1.18633e-99
4.26694e-98
1.42249e-96
4.43966e-95
1.3076e-93
3.6581e-92
9.77505e-91
2.50716e-89
5.89708e-88
3.83084e-86
3.2653e-83
2.11929e-81
7.0235e-80
1.90804e-78
4.65962e-77
1.06223e-75
2.30646e-74
4.83133e-73
9.85185e-72
1.96976e-70
3.8831e-69
7.52731e-68
1.42502e-66
3.08009e-65
1.25269e-63
4.71706e-62
2.95761e-61
2.26757e-61
1.04663e-62
1.06352e-62
4.06449e-63
9.77596e-64
1.73737e-64
2.47733e-65
2.97904e-66
3.13588e-67
2.73367e-68
-1.5969e-119
2.47961e-117
5.4071e-115
5.78013e-113
4.759e-111
3.00734e-109
1.62059e-107
7.70465e-106
3.30263e-104
1.29692e-102
4.72314e-101
1.61026e-99
5.18104e-98
1.58362e-96
4.62386e-95
1.29592e-93
3.50044e-92
8.74699e-91
1.19059e-88
8.97873e-86
4.20579e-84
1.37104e-82
3.84775e-81
9.89272e-80
2.39784e-78
5.56991e-77
1.25345e-75
2.75474e-74
5.94967e-73
1.26464e-71
2.62647e-70
5.62416e-69
1.694e-67
6.45429e-66
1.37426e-64
8.73165e-64
1.00167e-64
2.90095e-65
1.95441e-65
6.5059e-66
1.46388e-66
2.5036e-67
3.48553e-68
4.14549e-69
3.99839e-70
7.90215e-127
1.47023e-122
2.85075e-120
3.81813e-118
3.62882e-116
2.54996e-114
1.4748e-112
7.55776e-111
3.50764e-109
1.49809e-107
5.95944e-106
2.22863e-104
7.89297e-103
2.66376e-101
8.6092e-100
2.67627e-98
8.03326e-97
2.31691e-95
6.56492e-94
2.81639e-91
1.45654e-88
6.68424e-87
2.29292e-85
6.90515e-84
1.92605e-82
5.10578e-81
1.30599e-79
3.25636e-78
7.97568e-77
1.93058e-75
4.61689e-74
1.07962e-72
2.79192e-71
1.4444e-69
6.93919e-68
6.6575e-67
1.48401e-66
1.13607e-67
6.62574e-68
3.51698e-68
1.05061e-68
2.21336e-69
3.63314e-70
4.94906e-71
5.33505e-72
8.48208e-132
3.09319e-127
5.16715e-125
6.01561e-123
5.26727e-121
3.88919e-119
2.47116e-117
1.3972e-115
7.17096e-114
3.39057e-112
1.49365e-110
6.18392e-109
2.42357e-107
9.0471e-106
3.23325e-104
1.11129e-102
3.68793e-101
1.1861e-99
3.57676e-98
1.21296e-96
7.56517e-94
1.63589e-91
7.76472e-90
2.8559e-88
9.32094e-87
2.83279e-85
8.21009e-84
2.30159e-82
6.30137e-81
1.69721e-79
4.52159e-78
1.18931e-76
3.07549e-75
9.01885e-74
4.75836e-72
2.90889e-70
2.89043e-69
1.65282e-69
1.7468e-70
1.52314e-70
6.37361e-71
1.70727e-71
3.37335e-72
5.34344e-73
6.50626e-74
1.20148e-146
1.06123e-132
1.99354e-130
2.72123e-128
2.80067e-126
2.23557e-124
1.5376e-122
9.47092e-121
5.32911e-119
2.7791e-117
1.35768e-115
6.26435e-114
2.74752e-112
1.15146e-110
4.63173e-109
1.79551e-107
6.73186e-106
2.44894e-104
8.67076e-103
2.9771e-101
1.00412e-99
3.95649e-97
2.55024e-94
1.41379e-92
5.88e-91
2.15874e-89
7.3827e-88
2.4131e-86
7.65229e-85
2.37809e-83
7.29712e-82
2.21838e-80
6.62524e-79
2.05197e-77
1.04568e-75
8.23608e-74
1.7701e-72
8.06916e-72
1.66373e-72
5.11207e-73
3.24258e-73
1.14644e-73
2.79325e-74
5.22763e-75
7.27179e-76
4.21207e-147
6.21449e-138
1.17443e-135
1.69192e-133
1.7165e-131
1.46334e-129
1.10057e-127
7.53182e-126
4.73252e-124
2.76767e-122
1.52147e-120
7.92119e-119
3.92883e-117
1.86495e-115
8.50956e-114
3.74627e-112
1.59661e-110
6.60832e-109
2.6643e-107
1.0493e-105
4.04775e-104
1.48636e-102
1.72829e-100
2.53614e-97
1.82984e-95
8.92953e-94
3.76835e-92
1.47115e-90
5.47491e-89
1.97509e-87
6.98244e-86
2.43811e-84
8.42903e-83
2.86027e-81
1.04346e-79
7.24766e-78
7.17501e-76
1.09352e-74
1.39366e-74
3.54832e-75
1.3602e-75
6.69705e-76
2.06468e-76
4.64738e-77
7.47617e-78
4.18651e-147
3.97547e-144
1.27772e-141
3.11803e-139
3.95471e-137
3.68792e-135
3.13081e-133
2.38689e-131
1.68736e-129
1.12008e-127
7.04156e-126
4.21809e-124
2.41884e-122
1.33285e-120
7.08024e-119
3.63601e-117
1.81056e-115
8.76582e-114
4.13741e-112
1.90898e-110
8.63193e-109
3.83525e-107
1.63294e-105
8.92872e-104
1.30817e-100
2.46773e-98
1.58496e-96
8.1535e-95
3.79175e-93
1.66665e-91
7.08017e-90
2.94641e-88
1.21121e-86
4.91099e-85
1.99638e-83
1.09209e-81
1.40444e-79
6.88922e-78
4.56561e-77
1.6033e-77
8.10138e-78
3.39018e-78
1.36647e-78
3.77054e-79
7.10565e-80
3.97844e-147
4.20472e-147
7.811e-147
3.2203e-145
3.93891e-143
4.08996e-141
3.82113e-139
3.28721e-137
2.6591e-135
2.05139e-133
1.52242e-131
1.083e-129
7.40729e-128
4.88333e-126
3.11043e-124
1.91798e-122
1.14751e-120
6.68038e-119
3.79341e-117
2.10615e-115
1.14624e-113
6.13001e-112
3.22975e-110
1.68078e-108
8.45651e-107
9.22946e-105
2.39531e-101
2.81135e-99
1.92496e-97
1.11844e-95
5.99987e-94
3.07734e-92
1.53759e-90
7.55652e-89
3.63968e-87
1.83332e-85
1.74702e-83
2.60164e-81
5.57746e-80
1.06267e-79
5.08713e-80
1.50011e-80
8.14178e-81
2.80955e-81
6.28475e-82
2.57733e-151
4.92932e-149
2.32127e-147
4.12873e-147
4.26092e-147
6.16065e-147
1.46618e-145
1.43077e-143
1.41603e-141
1.35923e-139
1.26388e-137
1.13153e-135
9.76164e-134
8.12483e-132
6.53561e-130
5.09107e-128
3.84884e-126
2.82985e-124
2.02872e-122
1.42171e-120
9.76432e-119
6.58916e-117
4.38036e-115
2.87614e-113
1.86991e-111
1.20683e-109
7.59995e-108
7.61362e-106
1.94632e-102
2.75596e-100
2.29167e-98
1.62481e-96
1.06888e-94
6.75399e-93
4.15538e-91
2.51479e-89
1.852e-87
4.21139e-85
4.06486e-83
2.96376e-82
2.09918e-82
1.55213e-82
4.42336e-83
1.94854e-83
5.21843e-84
4.63797e-157
1.63285e-154
2.03957e-152
1.49402e-150
7.91666e-149
2.14771e-147
4.08686e-147
4.18967e-147
3.34267e-147
-1.8707e-147
-5.61535e-145
-3.3835e-143
-5.37026e-142
2.34405e-139
5.03206e-137
7.38432e-135
9.31023e-133
1.06147e-130
1.13049e-128
1.14324e-126
1.11484e-124
1.05629e-122
9.78144e-121
8.89583e-119
7.97985e-117
7.08544e-115
6.24789e-113
5.48764e-111
4.74089e-109
5.86982e-107
2.69597e-103
6.63087e-101
7.45553e-99
6.94416e-97
5.9483e-95
4.83647e-93
3.99244e-91
6.8053e-89
1.73285e-86
4.02422e-85
9.60873e-85
7.83352e-85
4.09846e-85
1.43856e-85
4.12927e-86
8.95784e-164
2.33663e-161
3.66038e-159
4.05073e-157
3.62825e-155
2.69746e-153
1.64381e-151
8.03516e-150
3.15255e-148
3.11908e-147
2.42875e-147
1.12592e-147
-1.59686e-147
-5.90265e-146
-6.52063e-144
-6.70565e-142
-6.45152e-140
-5.64822e-138
-4.1662e-136
-1.85012e-134
1.50136e-132
6.42046e-130
1.32928e-127
2.26896e-125
3.55399e-123
5.31903e-121
7.75786e-119
1.11528e-116
1.59174e-114
2.26628e-112
3.22564e-110
4.60753e-108
5.69845e-105
1.69878e-101
3.0767e-99
4.18147e-97
5.06579e-95
7.42812e-93
3.3105e-90
3.60618e-88
2.69719e-87
3.15605e-87
3.15367e-87
1.44461e-87
4.60788e-88
5.56316e-173
6.73396e-171
8.0165e-169
1.09345e-166
1.60421e-164
2.30907e-162
3.09796e-160
3.77753e-158
4.11741e-156
3.94119e-154
3.23393e-152
2.21201e-150
1.26342e-148
2.85562e-147
2.42169e-147
1.57465e-147
-9.03334e-148
-1.23895e-146
-5.77916e-144
-8.92228e-142
-1.34761e-139
-1.98305e-137
-2.84763e-135
-3.98954e-133
-5.43584e-131
-7.10314e-129
-8.4295e-127
-6.84765e-125
9.02056e-123
8.97336e-120
4.44363e-117
1.95746e-114
8.36792e-112
3.51924e-109
2.45452e-106
6.18471e-102
2.66139e-99
6.51884e-97
3.89592e-94
2.27055e-91
4.72042e-90
1.33273e-89
1.49895e-89
1.05573e-89
4.4012e-90
1.07837e-191
5.12713e-190
5.80423e-188
1.38543e-185
5.03987e-183
2.20479e-180
1.00946e-177
4.49905e-175
1.89468e-172
7.46773e-170
2.74598e-167
9.39209e-165
2.97214e-162
8.62574e-160
2.26635e-157
5.30129e-155
1.08777e-152
1.99665e-150
3.56454e-148
2.77496e-147
2.02614e-147
3.01688e-148
-7.96276e-147
-1.621e-144
-6.69858e-142
3.47653e-138
-1.34705e-136
-5.2029e-134
-2.04208e-131
-7.9195e-129
-3.04016e-126
-1.15549e-123
-4.34709e-121
-1.61652e-118
-5.92162e-116
-2.12243e-113
-7.34764e-111
3.96572e-104
3.19327e-98
1.07887e-94
6.67903e-93
1.92317e-91
2.22238e-90
3.21989e-90
1.07813e-90
)
;

boundaryField
{
    leftWall
    {
        type            zeroGradient;
    }
    rightWall
    {
        type            zeroGradient;
    }
    lowerWall
    {
        type            zeroGradient;
    }
    atmosphere
    {
        type            inletOutlet;
        inletValue      uniform 0;
        value           nonuniform List<scalar> 
45
(
0
0
0
0
0
0
0
0
0
0
0
0
0
0
0
0
0
0
0
0
0
0
0
0
0
0
0
0
0
0
0
0
0
0
0
0
0
0
0
1.07887e-94
6.67903e-93
1.92317e-91
2.22238e-90
3.21989e-90
1.07813e-90
)
;
    }
    defaultFaces
    {
        type            empty;
    }
    procBoundary2to0
    {
        type            processor;
        value           nonuniform List<scalar> 
46
(
0.999976
0.999975
0.999977
0.384239
0.000203914
-1.01938e-06
7.46235e-08
5.25116e-10
7.97852e-12
6.05549e-12
5.07317e-12
8.73555e-13
6.30083e-14
3.24007e-15
1.69498e-16
9.32341e-18
5.34874e-19
3.19222e-20
1.97879e-21
1.27047e-22
8.4192e-24
5.72627e-25
3.97337e-26
2.7951e-27
1.98036e-28
1.00006
0.998153
0.998822
0.999373
0.999649
0.999784
0.999852
0.99989
0.999912
0.999925
0.999931
0.999934
0.999933
0.999931
0.999927
0.999922
0.999915
0.999908
0.9999
0.999893
0.999893
)
;
    }
    procBoundary2to3
    {
        type            processor;
        value           nonuniform List<scalar> 
43
(
1.79472e-30
2.0979e-31
2.28044e-32
2.40477e-33
2.44495e-34
2.37029e-35
2.18538e-36
1.90971e-37
1.57567e-38
1.22235e-39
8.87365e-41
5.99539e-42
3.74556e-43
2.13619e-44
1.18356e-45
7.22976e-47
4.24984e-48
2.31863e-49
1.12706e-50
4.92812e-52
1.99135e-53
7.43609e-55
2.55878e-56
8.10236e-58
2.35812e-59
6.302e-61
1.54537e-62
3.47563e-64
7.16822e-66
1.35466e-67
2.34319e-69
3.73371e-71
5.49295e-73
7.45181e-75
9.35043e-77
1.08952e-78
1.1849e-80
1.21046e-82
1.17097e-84
1.09066e-86
1.39214e-88
1.46585e-90
2.787e-91
)
;
    }
}


// ************************************************************************* //
