/*--------------------------------*- C++ -*----------------------------------*\
| =========                 |                                                 |
| \\      /  F ield         | OpenFOAM: The Open Source CFD Toolbox           |
|  \\    /   O peration     | Version:  5.0                                   |
|   \\  /    A nd           | Web:      www.OpenFOAM.org                      |
|    \\/     M anipulation  |                                                 |
\*---------------------------------------------------------------------------*/
FoamFile
{
    version     2.0;
    format      ascii;
    class       surfaceScalarField;
    location    "0.1";
    object      alphaPhi10;
}
// * * * * * * * * * * * * * * * * * * * * * * * * * * * * * * * * * * * * * //

dimensions      [0 3 -1 0 0 0 0];

internalField   nonuniform List<scalar> 
3742
(
4.31289e-06
-4.04603e-05
4.48178e-06
-4.04497e-05
4.56457e-06
-4.00652e-05
3.96335e-08
-1.17507e-05
1.76818e-09
-1.63382e-07
5.01048e-12
-1.77668e-09
-4.29375e-13
-5.14465e-13
-8.4379e-15
3.37635e-13
-4.39245e-17
1.77112e-15
-6.6589e-18
1.62665e-16
-1.17984e-18
8.97878e-17
-8.17704e-20
5.81311e-18
-4.38405e-21
2.79048e-19
-2.23442e-22
1.29361e-20
-1.15244e-23
6.03286e-22
-6.02237e-25
2.97461e-23
-3.17221e-26
1.55136e-24
-1.66966e-27
8.51118e-26
-8.65025e-29
4.88418e-27
-4.34588e-30
2.91919e-28
-1.96409e-31
1.82712e-29
-6.54562e-33
1.17494e-30
4.21756e-35
7.70489e-32
3.85327e-35
5.12452e-33
3.50597e-34
-5.95185e-07
-5.90884e-05
-5.32003e-07
-5.63802e-05
-2.98885e-07
-5.29462e-05
-1.5105e-08
-4.98201e-05
2.85131e-07
-4.70383e-05
5.83568e-07
-4.467e-05
8.72755e-07
-4.2744e-05
1.15038e-06
-4.12483e-05
1.41583e-06
-4.01417e-05
1.66916e-06
-3.93753e-05
1.91031e-06
-3.88973e-05
2.13894e-06
-3.86575e-05
2.35452e-06
-3.86081e-05
2.55631e-06
-3.87058e-05
2.74381e-06
-3.89115e-05
2.91691e-06
-3.91904e-05
3.07616e-06
-3.95104e-05
3.22308e-06
-3.98411e-05
3.36009e-06
-4.01509e-05
3.4919e-06
-4.04049e-05
3.62493e-06
-4.05605e-05
3.75637e-06
-4.05478e-05
3.57812e-06
-3.98562e-05
4.22872e-08
-8.99157e-06
9.44174e-10
-1.22586e-07
1.286e-12
-8.213e-10
-2.83238e-13
1.41333e-12
-3.39481e-15
5.91934e-14
-3.22952e-17
5.30762e-16
-9.08149e-18
1.62635e-16
-7.09638e-19
3.49306e-17
-3.67857e-20
1.49026e-18
-1.7409e-21
6.24969e-20
-8.10382e-23
2.67332e-21
-3.90089e-24
1.16911e-22
-1.94431e-25
5.43893e-24
-9.98667e-27
2.68835e-25
-5.25443e-28
1.40326e-26
-2.81354e-29
7.68671e-28
-1.53332e-30
4.39671e-29
-8.31486e-32
2.62823e-30
-4.40096e-33
1.61735e-31
-2.21059e-34
1.01712e-32
-1.00937e-35
6.50476e-34
4.25926e-35
-7.78488e-07
-3.75863e-05
-1.02998e-06
-4.84517e-05
-9.01862e-07
-5.18652e-05
-6.15548e-07
-4.94773e-05
-2.92023e-07
-4.69942e-05
3.8894e-08
-4.47583e-05
3.60289e-07
-4.2879e-05
6.6576e-07
-4.14038e-05
9.53529e-07
-4.03025e-05
1.22298e-06
-3.95317e-05
1.474e-06
-3.90431e-05
1.7065e-06
-3.87881e-05
1.92029e-06
-3.87201e-05
2.1147e-06
-3.87961e-05
2.28951e-06
-3.89779e-05
2.4447e-06
-3.92315e-05
2.58091e-06
-3.95259e-05
2.69981e-06
-3.9832e-05
2.80448e-06
-4.01202e-05
2.9e-06
-4.03581e-05
2.99617e-06
-4.05094e-05
3.06606e-06
-4.04705e-05
2.63316e-06
-3.92876e-05
4.52554e-08
-6.76253e-06
5.25814e-10
-7.962e-08
-5.75878e-13
-2.79873e-10
-8.41929e-14
9.47431e-13
-1.23234e-15
7.82598e-15
-3.58758e-17
5.36611e-16
-5.51045e-18
1.15636e-16
-2.77372e-19
8.08311e-18
-1.231e-20
3.11804e-19
-5.31044e-22
1.24197e-20
-2.30072e-23
5.02889e-22
-1.04232e-24
2.0951e-23
-4.94005e-26
9.29013e-25
-2.43737e-27
4.38074e-26
-1.24476e-28
2.1851e-27
-6.54352e-30
1.14609e-28
-3.54574e-31
6.28797e-30
-1.94663e-32
3.6121e-31
-1.07139e-33
2.13953e-32
-5.85009e-35
1.29672e-33
-3.16077e-36
7.99574e-35
5.02622e-36
-1.57374e-07
-1.80217e-06
-8.9669e-07
-9.64292e-06
-1.30503e-06
-1.88785e-05
-1.32759e-06
-2.81745e-05
-1.08304e-06
-3.56175e-05
-7.09964e-07
-3.99744e-05
-3.17561e-07
-4.1206e-05
6.06457e-08
-4.09833e-05
4.12134e-07
-4.00838e-05
7.34579e-07
-3.93373e-05
1.02766e-06
-3.88493e-05
1.29149e-06
-3.85776e-05
1.52636e-06
-3.84806e-05
1.73227e-06
-3.85179e-05
1.91043e-06
-3.86549e-05
2.06206e-06
-3.88593e-05
2.18396e-06
-3.90971e-05
2.27596e-06
-3.92415e-05
2.3449e-06
-3.92649e-05
2.3962e-06
-3.92021e-05
2.44313e-06
-3.90137e-05
2.43815e-06
-3.88482e-05
1.99451e-06
-3.78447e-05
4.08581e-08
-4.48022e-06
2.7534e-10
-3.89132e-08
-1.40763e-12
3.38437e-14
-9.2816e-15
3.63027e-15
-2.5801e-16
4.29227e-16
-2.95142e-17
3.32918e-16
-1.97809e-18
3.87004e-17
-8.42534e-20
1.46899e-18
-3.42052e-21
5.80529e-20
-1.37454e-22
2.2486e-21
-5.60506e-24
8.74883e-23
-2.40343e-25
3.49708e-24
-1.08453e-26
1.48515e-25
-5.12653e-28
6.70813e-27
-2.52433e-29
3.2091e-28
-1.28798e-30
1.61703e-29
-6.81532e-32
8.53877e-31
-3.6819e-33
4.72486e-32
-2.0126e-34
2.69896e-33
-1.10469e-35
1.57882e-34
-6.0942e-37
9.40165e-36
5.70521e-37
9.01764e-09
3.44507e-22
-1.70081e-07
-1.05476e-11
-3.54771e-07
-1.19694e-09
-6.40093e-07
-4.31675e-08
-8.31856e-07
-1.59641e-06
-8.62947e-07
-6.5076e-06
-7.16142e-07
-1.05297e-05
-4.44763e-07
-1.3198e-05
-1.24889e-07
-1.46435e-05
2.01343e-07
-1.547e-05
4.9887e-07
-1.5828e-05
7.56321e-07
-1.58402e-05
9.67728e-07
-1.55997e-05
1.13241e-06
-1.51811e-05
1.25299e-06
-1.46308e-05
1.33248e-06
-1.39914e-05
1.37479e-06
-1.32955e-05
1.38444e-06
-1.25794e-05
1.3667e-06
-1.18684e-05
1.32991e-06
-1.11175e-05
1.30622e-06
-1.03075e-05
1.15431e-06
-9.87554e-06
1.10339e-06
-1.23341e-05
3.66508e-08
-1.69018e-06
2.99059e-15
-2.32736e-09
-3.60526e-15
1.89868e-15
-9.93882e-17
1.64684e-16
-7.25737e-17
1.04759e-16
-1.19531e-17
4.30375e-17
-5.43709e-19
6.47532e-18
-2.16906e-20
2.45782e-19
-8.26247e-22
9.84374e-21
-3.13202e-23
3.7217e-22
-1.21034e-24
1.40212e-23
-4.93389e-26
5.40604e-25
-2.12511e-27
2.20973e-26
-9.63148e-29
9.60445e-28
-4.56795e-30
4.42496e-29
-2.25513e-31
2.14988e-30
-1.159e-32
1.096e-31
-6.10877e-34
5.85856e-33
-3.27366e-35
3.2357e-34
-1.77164e-36
1.8314e-35
-9.68573e-38
1.05584e-36
6.19545e-38
-7.81118e-24
5.38283e-22
-1.05476e-11
3.3019e-20
-1.20749e-09
5.32821e-18
-4.4375e-08
1.32302e-16
-1.39265e-07
1.50705e-15
-1.87614e-07
1.72977e-14
-9.97233e-08
8.93226e-16
-9.80472e-08
7.72777e-15
-6.91689e-08
1.54481e-13
-2.11054e-08
3.2843e-13
3.15306e-08
6.42968e-13
7.69933e-08
8.67328e-13
1.09351e-07
6.59583e-13
1.27497e-07
3.8756e-13
1.33324e-07
1.15095e-12
1.29221e-07
6.36347e-13
1.17927e-07
3.0047e-13
1.02374e-07
1.30843e-13
8.56765e-08
5.41792e-14
7.31568e-08
3.80803e-14
6.3214e-08
8.17113e-16
4.86397e-08
4.38233e-16
6.53784e-08
-1.24701e-09
3.84175e-09
-8.74581e-08
2.39376e-15
9.02344e-12
-1.18223e-15
-1.71708e-17
-1.02542e-16
4.12398e-16
-1.77373e-17
4.24404e-17
-2.90153e-18
4.45616e-18
-1.25834e-19
8.37446e-19
-4.82747e-21
3.70301e-20
-1.75208e-22
1.49119e-21
-6.33342e-24
5.55579e-23
-2.33694e-25
2.04578e-24
-9.10881e-27
7.66884e-26
-3.76074e-28
3.03798e-27
-1.63887e-29
1.27815e-28
-7.49797e-31
5.69952e-30
-3.58243e-32
2.68139e-31
-1.78655e-33
1.32454e-32
-9.16436e-35
6.86245e-34
-4.79415e-36
3.6755e-35
-2.54094e-37
2.01818e-36
-1.36311e-38
1.12904e-37
6.41974e-39
-7.15267e-25
2.86194e-22
-1.10965e-21
2.27673e-20
2.49424e-18
4.06752e-18
1.03228e-16
1.46723e-16
1.75894e-15
2.02712e-15
3.40595e-17
2.81183e-14
7.48293e-16
2.15484e-23
1.11941e-14
8.72804e-22
1.52891e-14
2.50016e-20
1.43594e-14
5.1641e-19
8.21322e-16
3.86253e-18
-1.48246e-14
3.05672e-17
-2.10688e-14
1.56679e-15
-1.69104e-14
6.59041e-14
-6.01858e-14
1.80049e-12
-3.6953e-14
1.00433e-12
-1.83567e-14
4.7986e-13
-8.04077e-15
2.12153e-13
-3.21089e-15
8.92958e-14
-6.9445e-16
2.0273e-14
-3.03396e-17
7.74921e-16
-7.10845e-18
1.48365e-15
-1.24703e-09
1.59148e-14
3.36521e-12
8.29116e-14
-4.51808e-16
1.09905e-13
-2.23077e-16
-4.39119e-20
-5.94101e-17
9.88332e-17
-3.64289e-18
1.17075e-17
-5.51476e-19
5.63775e-19
-2.44048e-20
9.86517e-20
-9.2112e-22
4.77649e-21
-3.24649e-23
1.97533e-22
-1.13421e-24
7.38383e-24
-4.03555e-26
2.69086e-25
-1.51547e-27
9.90512e-27
-6.03253e-29
3.83419e-28
-2.53871e-30
1.57209e-29
-1.12392e-31
6.82362e-31
-5.2076e-33
3.12348e-32
-2.52292e-34
1.50122e-33
-1.25975e-35
7.56634e-35
-6.42732e-37
3.94264e-36
-3.32903e-38
2.10623e-37
-1.74615e-39
1.14632e-38
6.33126e-40
-2.4025e-24
-8.68253e-45
-2.45361e-21
-5.34172e-43
-3.81138e-19
-3.69229e-41
-8.08412e-18
-2.83195e-39
-3.76699e-17
-2.86337e-37
2.37595e-25
-3.16004e-35
3.14603e-23
-2.92476e-33
1.33777e-21
-1.4954e-31
3.3221e-20
-4.98688e-30
2.74195e-19
-1.29691e-28
2.31392e-18
-2.82569e-27
1.25379e-16
-5.37426e-26
5.60035e-15
-9.13395e-25
1.64373e-13
-1.40394e-23
9.99983e-14
-1.96042e-22
5.29702e-14
-2.49818e-21
2.64085e-14
-2.98629e-20
1.27688e-14
-3.40981e-19
3.40952e-15
-3.77223e-18
1.58873e-16
-3.73776e-17
3.91668e-16
-8.30052e-17
5.90978e-15
-7.87094e-16
4.91231e-14
-5.81653e-15
1.60742e-13
-1.2142e-14
-7.36346e-17
-3.55204e-14
-7.38644e-17
1.85833e-19
-1.00476e-17
3.95924e-18
-5.77412e-19
8.39459e-19
-8.29293e-20
7.28984e-20
-3.85763e-21
1.23713e-20
-1.48864e-22
6.12658e-22
-5.22269e-24
2.39933e-23
-1.79104e-25
8.63411e-25
-6.21591e-27
3.16272e-26
-2.26913e-28
1.15685e-27
-8.7695e-30
4.41467e-29
-3.58338e-31
1.77701e-30
-1.54159e-32
7.55429e-32
-6.94921e-34
3.3823e-33
-3.27854e-35
1.58888e-34
-1.59608e-36
7.8219e-36
-7.94885e-38
3.97943e-37
-4.02352e-39
2.07487e-38
-2.06187e-40
1.10173e-39
5.92628e-41
1.59705e-47
-8.6985e-45
8.44347e-45
-5.42599e-43
7.04817e-43
-3.76193e-41
4.14697e-41
-2.87272e-39
2.09349e-39
-2.88389e-37
-2.7172e-36
-2.88811e-35
-1.25079e-33
-1.80015e-33
-7.50354e-32
-7.57553e-32
-2.67017e-30
-2.39175e-30
-7.12576e-29
-6.11033e-29
-1.57243e-27
-1.32452e-27
-3.0148e-26
-2.51669e-26
-5.15337e-25
-4.28206e-25
-7.952e-24
-6.60272e-24
-1.11826e-22
-9.2168e-23
-1.47851e-21
-1.1315e-21
-1.8776e-20
-1.25654e-20
-2.33281e-19
-1.26476e-19
-2.91117e-18
-1.09435e-18
-3.3203e-17
-7.08573e-18
-7.60086e-17
-4.67044e-17
-1.88149e-15
-2.64174e-16
-1.29384e-14
-1.79659e-15
-4.40599e-15
-1.79703e-15
-5.74131e-17
-8.77993e-16
-4.27712e-18
6.73562e-19
-7.3151e-19
1.80087e-19
-6.9055e-20
9.21803e-20
-1.08222e-20
9.05173e-21
-5.26108e-22
1.51646e-21
-2.03777e-23
7.7422e-23
-7.20397e-25
2.98644e-24
-2.47505e-26
1.05018e-25
-8.50708e-28
3.5972e-27
-3.04893e-29
1.22347e-28
-1.15287e-30
4.60356e-30
-4.60267e-32
1.83492e-31
-1.9339e-33
7.69296e-33
-8.51576e-35
3.3883e-34
-3.92535e-36
1.56347e-35
-1.86795e-37
7.55087e-37
-9.09798e-39
3.76533e-38
-4.50622e-40
1.92277e-39
-2.25767e-41
9.99187e-41
5.2496e-42
-1.85841e-46
-1.412e-44
5.25099e-45
-1.13257e-42
1.25498e-42
-8.36305e-41
6.00754e-41
-6.32088e-39
-7.47048e-39
-4.76879e-37
-2.41973e-36
-3.46588e-35
-2.74738e-34
-1.80212e-33
-1.66303e-32
-6.66739e-32
-6.75953e-31
-1.91892e-30
-2.02747e-29
-4.71179e-29
-4.98404e-28
-9.79941e-28
-1.05294e-26
-1.78691e-26
-1.97044e-25
-2.90629e-25
-3.33376e-24
-4.15723e-24
-4.68199e-23
-5.00951e-23
-6.13469e-22
-5.86491e-22
-7.63195e-21
-6.25218e-21
-9.66892e-20
-6.83652e-20
-1.10619e-18
-7.54301e-19
-5.32973e-18
-4.24393e-18
-3.44833e-17
-8.5131e-18
-5.48296e-16
-8.79144e-18
-3.3283e-15
-5.22749e-18
-3.65546e-15
-1.43196e-20
-9.73131e-19
-1.46864e-20
-2.8186e-19
4.53551e-22
-9.95713e-20
2.90789e-21
-1.01898e-20
3.33056e-21
-1.39504e-21
5.38476e-22
-6.96146e-23
1.34784e-22
-2.67066e-24
7.64196e-24
-9.05178e-26
3.18158e-25
-3.04749e-27
1.15655e-26
-1.0275e-28
3.94239e-28
-3.65268e-30
1.33765e-29
-1.36545e-31
4.75854e-31
-5.36673e-33
1.78016e-32
-2.21479e-34
7.16192e-34
-9.57156e-36
3.12399e-35
-4.32773e-37
1.42404e-36
-2.01963e-38
6.77909e-38
-9.64565e-40
3.32734e-39
-4.68456e-41
1.67035e-40
-2.29835e-42
8.52368e-42
4.38768e-43
-5.14691e-45
-8.28836e-45
-4.64504e-43
-6.01322e-43
-4.94508e-41
-3.30681e-41
-4.9496e-39
-1.52084e-39
-4.31515e-37
-6.46716e-38
-3.32764e-35
-2.74507e-36
-1.78738e-33
-9.58201e-35
-6.74366e-32
-2.68488e-33
-1.9383e-30
-6.39234e-32
-4.79167e-29
-1.2836e-30
-1.00477e-27
-2.26579e-29
-1.84678e-26
-3.57282e-28
-3.02791e-25
-5.07384e-27
-4.37457e-24
-6.40503e-26
-5.285e-23
-6.86251e-25
-6.19594e-22
-6.97426e-24
-6.60732e-21
-6.34824e-23
-1.13655e-19
-5.34595e-22
-1.61336e-18
-5.94528e-21
-4.82625e-18
-4.22721e-20
-5.47616e-18
-1.03277e-19
-3.28669e-18
-1.19845e-19
-9.0132e-21
-7.91227e-20
-8.43008e-21
-8.03027e-21
-1.73905e-20
-1.09207e-21
-8.84831e-21
1.26899e-22
-3.91331e-21
9.55684e-23
-6.06317e-22
1.49377e-22
-1.23434e-22
3.61748e-23
-6.86958e-24
1.08258e-23
-2.8135e-25
6.73389e-25
-1.01077e-26
2.95257e-26
-3.40964e-28
1.10701e-27
-1.14228e-29
3.84071e-29
-3.97986e-31
1.31391e-30
-1.45681e-32
4.63083e-32
-5.65125e-34
1.71307e-33
-2.30767e-35
6.69896e-35
-9.84747e-37
2.76101e-36
-4.38692e-38
1.19438e-37
-2.01526e-39
5.6355e-39
-9.46795e-41
2.73575e-40
-4.52087e-42
1.35559e-41
-2.17696e-43
6.81747e-43
3.44997e-44
-6.76752e-45
-7.26992e-46
-5.56588e-43
-5.79888e-44
-3.14189e-41
-2.75842e-42
-1.47996e-39
-1.01489e-40
-5.94586e-38
-3.11097e-39
-2.50028e-36
-9.39739e-38
-8.70612e-35
-2.42984e-36
-2.44409e-33
-5.38648e-35
-5.82039e-32
-1.04517e-33
-1.19205e-30
-1.79586e-32
-2.14716e-29
-2.762e-31
-3.4607e-28
-3.84065e-30
-5.02989e-27
-4.85311e-29
-6.36761e-26
-5.48827e-28
-6.34748e-25
-5.2766e-27
-6.71601e-24
-5.1217e-26
-6.55787e-23
-4.57708e-25
-6.38927e-22
-3.9011e-24
-9.28062e-21
-4.14294e-23
-4.95655e-20
-2.35478e-22
-9.21315e-20
-5.21149e-22
-9.58778e-20
-5.90922e-22
-3.84472e-20
-4.48045e-22
-7.67799e-21
-1.71226e-22
-4.12036e-21
-5.83069e-23
-3.76952e-22
-9.32494e-25
-2.00154e-22
2.22142e-24
-4.33254e-23
4.55535e-24
-1.00873e-23
1.90143e-24
-6.15418e-25
6.94813e-25
-2.65549e-26
4.97542e-26
-9.82365e-28
2.335e-27
-3.36197e-29
9.14305e-29
-1.13084e-30
3.25846e-30
-3.92927e-32
1.13116e-31
-1.42861e-33
4.03067e-33
-5.46843e-35
1.49771e-34
-2.19479e-36
5.83363e-36
-9.23539e-38
2.37755e-37
-4.07642e-39
1.01578e-38
-1.85262e-40
4.55085e-40
-8.59345e-42
2.0895e-41
-4.04683e-43
1.02395e-42
-1.91782e-44
5.09631e-44
2.54446e-45
-6.57195e-46
-1.26078e-48
-5.5029e-44
-1.09347e-46
-2.64152e-42
-5.11461e-45
-9.90254e-41
-1.77613e-43
-3.20954e-39
-5.15677e-42
-9.71166e-38
-1.37798e-40
-2.52554e-36
-3.17019e-39
-5.63524e-35
-6.32091e-38
-1.10065e-33
-1.11824e-36
-1.90476e-32
-1.77292e-35
-2.94985e-31
-2.53938e-34
-4.13091e-30
-3.31195e-33
-5.25903e-29
-3.94693e-32
-6.00457e-28
-4.23465e-31
-5.86437e-27
-3.90406e-30
-5.70111e-26
-3.58327e-29
-5.1461e-25
-3.05253e-28
-5.00925e-24
-2.42746e-27
-6.65929e-23
-2.10899e-26
-2.97893e-22
-1.40352e-25
-5.36022e-22
-5.85116e-25
-5.67313e-22
-1.65858e-24
-3.93535e-22
-3.17169e-24
-2.80866e-22
-3.34712e-24
-1.67143e-22
-1.89979e-24
-1.15191e-23
-1.26694e-25
-7.57624e-24
5.08284e-26
-2.45265e-24
8.97527e-26
-6.69101e-25
7.54891e-26
-4.60619e-26
3.53789e-26
-2.12719e-27
3.03326e-27
-8.21838e-29
1.5579e-28
-2.88927e-30
6.4676e-30
-9.87226e-32
2.39941e-31
-3.45672e-33
8.55947e-33
-1.25924e-34
3.10439e-34
-4.80821e-36
1.16565e-35
-1.92001e-37
4.57111e-37
-8.0137e-39
1.87085e-38
-3.48835e-40
7.9935e-40
-1.56448e-41
3.54468e-41
-7.1945e-43
1.6167e-42
-3.35518e-44
7.56008e-44
-1.56983e-45
3.5662e-45
1.75477e-46
-1.25588e-48
-5.09834e-51
-1.10628e-46
-4.72362e-49
-5.22751e-45
-2.26722e-47
-1.82889e-43
-7.80686e-46
-5.30512e-42
-2.17424e-44
-1.42649e-40
-5.51181e-43
-3.29282e-39
-1.19648e-41
-6.61244e-38
-2.27249e-40
-1.17807e-36
-3.85583e-39
-1.87625e-35
-5.87399e-38
-2.7017e-34
-8.12382e-37
-3.54642e-33
-1.02778e-35
-4.25742e-32
-1.19295e-34
-4.61579e-31
-1.25514e-33
-4.31477e-30
-1.14505e-32
-4.01812e-29
-1.03628e-31
-3.45593e-28
-8.66768e-31
-2.86453e-27
-6.71605e-30
-2.9054e-26
-5.03491e-29
-1.97223e-25
-3.40683e-28
-8.99622e-25
-2.14073e-27
-3.13928e-24
-1.18393e-26
-6.56277e-24
-3.87476e-26
-7.29651e-24
-5.46488e-26
-4.3446e-24
-3.70371e-26
-3.08432e-25
-5.43014e-27
-2.16589e-25
6.1212e-28
-1.07425e-25
1.63734e-27
-3.53508e-26
2.10532e-27
-2.84504e-27
1.41373e-27
-1.43275e-28
1.46592e-28
-5.8698e-30
8.6742e-30
-2.14836e-31
3.88647e-31
-7.54424e-33
1.52259e-32
-2.68932e-34
5.65158e-34
-9.90597e-36
2.10913e-35
-3.80514e-37
8.08104e-37
-1.52262e-38
3.21283e-38
-6.34698e-40
1.32636e-39
-2.75244e-41
5.69331e-41
-1.22738e-42
2.53466e-42
-5.58013e-44
1.15774e-43
-2.57149e-45
5.36501e-45
-1.19157e-46
2.51296e-46
1.19168e-47
-5.06981e-51
-2.97587e-53
-4.77643e-49
-2.93202e-51
-2.30772e-47
-1.46381e-49
-8.01603e-46
-5.14537e-48
-2.24919e-44
-1.43633e-46
-5.52133e-43
-3.42844e-45
-1.20558e-41
-7.17141e-44
-2.29601e-40
-1.31669e-42
-3.89865e-39
-2.16246e-41
-5.97114e-38
-3.21771e-40
-8.34069e-37
-4.37656e-39
-1.06722e-35
-5.46503e-38
-1.25376e-34
-6.28289e-37
-1.32151e-33
-6.58079e-36
-1.2778e-32
-6.35094e-35
-1.16786e-31
-5.7682e-34
-9.85819e-31
-4.86076e-33
-7.76891e-30
-3.86876e-32
-6.34762e-29
-2.89477e-31
-5.07499e-28
-1.94953e-30
-4.41453e-27
-1.22234e-29
-3.24554e-26
-7.35949e-29
-1.01393e-25
-3.06114e-28
-1.33331e-25
-5.44845e-28
-9.26771e-26
-4.37399e-28
-6.93579e-27
-1.14462e-28
-5.34986e-27
3.12602e-30
-3.51535e-27
2.07243e-29
-1.46226e-27
3.2768e-29
-1.41534e-28
4.26734e-29
-8.03363e-30
5.67173e-30
-3.55031e-31
3.86988e-31
-1.37249e-32
1.96457e-32
-5.01567e-34
8.26626e-34
-1.84017e-35
3.23665e-35
-6.91879e-37
1.25724e-36
-2.69574e-38
4.9647e-38
-1.08882e-39
2.0187e-39
-4.56352e-41
8.4715e-41
-1.98321e-42
3.67796e-42
-8.83657e-44
1.64905e-43
-4.00512e-45
7.55671e-45
-1.83616e-46
3.51315e-46
-8.42084e-48
1.64654e-47
7.74659e-49
-2.96978e-53
-6.35989e-56
-2.96239e-51
-6.63301e-54
-1.49403e-49
-3.47011e-52
-5.29811e-48
-1.25994e-50
-1.49059e-46
-3.58844e-49
-3.58096e-45
-8.65054e-48
-7.53525e-44
-1.81635e-46
-1.39283e-42
-3.34067e-45
-2.30179e-41
-5.49082e-44
-3.44783e-40
-8.18637e-43
-4.71758e-39
-1.11696e-41
-5.93356e-38
-1.40292e-40
-6.87081e-37
-1.62607e-39
-7.24971e-36
-1.7227e-38
-7.08008e-35
-1.69294e-37
-6.48592e-34
-1.56584e-36
-5.52475e-33
-1.34993e-35
-4.59116e-32
-1.11926e-34
-3.82665e-31
-8.50702e-34
-2.9654e-30
-5.8733e-33
-2.49755e-29
-3.74329e-32
-2.22624e-28
-2.31662e-31
-9.24657e-28
-1.17435e-30
-1.43959e-27
-2.88218e-30
-1.18004e-27
-2.96981e-30
-1.43688e-28
-1.51777e-30
-9.28555e-29
-9.13352e-32
-7.8198e-29
1.50499e-31
-4.60074e-29
3.90483e-31
-5.62959e-30
9.15433e-31
-3.67491e-31
1.72583e-31
-1.80314e-32
1.39955e-32
-7.48236e-34
8.04162e-34
-2.88382e-35
3.76998e-35
-1.10155e-36
1.59696e-36
-4.27003e-38
6.53751e-38
-1.70226e-39
2.68925e-39
-6.99298e-41
1.12874e-40
-2.9666e-42
4.85414e-42
-1.29963e-43
2.14676e-43
-5.81789e-45
9.75611e-45
-2.64167e-46
4.51224e-46
-1.20999e-47
2.1096e-47
-5.52775e-49
9.90778e-49
4.66702e-50
-6.35688e-56
-3.1463e-59
-6.68967e-54
-3.45668e-57
-3.53367e-52
-1.89462e-55
-1.29466e-50
-7.14636e-54
-3.71677e-49
-2.09628e-52
-9.01079e-48
-5.16152e-51
-1.90009e-46
-1.10041e-49
-3.50668e-45
-2.04914e-48
-5.79976e-44
-3.41802e-47
-8.69866e-43
-5.17128e-46
-1.19383e-41
-7.16671e-45
-1.50988e-40
-9.16259e-44
-1.7628e-39
-1.08322e-42
-1.88025e-38
-1.17332e-41
-1.88164e-37
-1.195e-40
-1.75489e-36
-1.13791e-39
-1.5334e-35
-1.01666e-38
-1.37471e-34
-8.71884e-38
-1.16782e-33
-6.85607e-37
-9.13944e-33
-4.95111e-36
-7.32647e-32
-3.26535e-35
-6.86691e-31
-1.98201e-34
-4.07187e-30
-1.16893e-33
-8.85007e-30
-6.15955e-33
-8.78255e-30
-1.60539e-32
-3.87142e-30
-1.54424e-32
-1.12053e-30
-5.00632e-33
-1.34038e-30
4.77131e-34
-1.0569e-30
3.77297e-33
-1.75881e-31
1.18731e-32
-1.36235e-32
4.0025e-33
-7.55398e-34
4.05292e-34
-3.44755e-35
2.70534e-35
-1.42554e-36
1.42116e-36
-5.73937e-38
6.56939e-38
-2.31794e-39
2.89811e-39
-9.54107e-41
1.26326e-40
-4.01835e-42
5.55004e-42
-1.73754e-43
2.47345e-43
-7.72102e-45
1.12394e-44
-3.49171e-46
5.22228e-46
-1.59618e-47
2.45419e-47
-7.33827e-49
1.16013e-48
-3.35349e-50
5.48858e-50
2.59528e-51
-3.14376e-59
-2.64871e-62
-3.48025e-57
-3.04871e-60
-1.92825e-55
-1.7519e-58
-7.33397e-54
-6.88332e-57
-2.16906e-52
-2.09306e-55
-5.32237e-51
-5.26082e-54
-1.13099e-49
-1.1399e-52
-2.11757e-48
-2.17609e-51
-3.55825e-47
-3.72685e-50
-5.42451e-46
-5.79612e-49
-7.58877e-45
-8.27319e-48
-9.77809e-44
-1.08896e-46
-1.16546e-42
-1.32805e-45
-1.28854e-41
-1.50621e-44
-1.3256e-40
-1.59348e-43
-1.27192e-39
-1.57738e-42
-1.1526e-38
-1.48135e-41
-1.09685e-37
-1.32051e-40
-9.68726e-37
-1.08701e-39
-7.90906e-36
-8.26887e-39
-5.94183e-35
-5.78817e-38
-4.47437e-34
-3.75101e-37
-4.21479e-33
-2.36064e-36
-2.94573e-32
-1.39739e-35
-6.75967e-32
-4.69699e-35
-6.39052e-32
-6.03813e-35
-1.14692e-32
-3.43109e-35
-1.77716e-32
-3.20949e-36
-1.56693e-32
1.96163e-35
-4.21129e-33
1.1754e-34
-4.03666e-34
6.76323e-35
-2.59958e-35
9.17349e-36
-1.32672e-36
7.39748e-37
-5.98085e-38
4.45391e-38
-2.57905e-39
2.28406e-39
-1.09931e-40
1.09449e-40
-4.72228e-42
5.09487e-42
-2.05711e-43
2.35968e-43
-9.13507e-45
1.09711e-44
-4.14541e-46
5.15803e-46
-1.90504e-47
2.46346e-47
-8.81302e-49
1.18537e-48
-4.08568e-50
5.7169e-50
-1.87572e-51
2.75368e-51
1.31596e-52
-2.64829e-62
-4.45169e-66
-3.073e-60
-5.36747e-64
-1.7816e-58
-3.22676e-62
-7.05847e-57
-1.32288e-60
-2.16318e-55
-4.1853e-59
-5.47699e-54
-1.09169e-57
-1.19482e-52
-2.4496e-56
-2.29587e-51
-4.83662e-55
-3.95644e-50
-8.56157e-54
-6.19266e-49
-1.37687e-52
-8.8946e-48
-2.03355e-51
-1.17821e-46
-2.77335e-50
-1.44627e-45
-3.51072e-49
-1.65133e-44
-4.14209e-48
-1.75908e-43
-4.57047e-47
-1.75492e-42
-4.73316e-46
-1.70893e-41
-4.67505e-45
-1.68975e-40
-4.36555e-44
-1.55816e-39
-3.79387e-43
-1.33588e-38
-3.07273e-42
-1.05904e-37
-2.31523e-41
-8.28431e-37
-1.61694e-40
-7.85687e-36
-1.04694e-39
-6.65415e-35
-6.49974e-39
-2.05678e-34
-4.01131e-38
-2.30035e-34
-1.62876e-37
-1.34055e-34
-2.38316e-37
-1.28844e-34
-1.1658e-37
-1.89e-34
3.42439e-38
-7.43836e-35
5.82158e-37
-9.37798e-36
7.57084e-37
-7.26058e-37
1.57367e-37
-4.24392e-38
1.61192e-38
-2.12337e-39
1.14836e-39
-9.93788e-41
6.68368e-41
-4.52227e-42
3.53375e-42
-2.04776e-43
1.77925e-43
-9.30987e-45
8.78034e-45
-4.2802e-46
4.2993e-46
-1.99749e-47
2.10909e-47
-9.38991e-49
1.04289e-48
-4.42306e-50
5.16406e-50
-2.08013e-51
2.54966e-51
-9.64214e-53
1.25187e-52
6.06664e-54
-4.45067e-66
-1.07177e-69
-5.41055e-64
-1.35323e-67
-3.27998e-62
-8.51838e-66
-1.3554e-60
-3.65158e-64
-4.32087e-59
-1.20636e-62
-1.13503e-57
-3.28079e-61
-2.56326e-56
-7.66455e-60
-5.08941e-55
-1.57361e-58
-9.06638e-54
-2.89864e-57
-1.46809e-52
-4.85534e-56
-2.18131e-51
-7.46882e-55
-2.99289e-50
-1.06223e-53
-3.81197e-49
-1.40459e-52
-4.52583e-48
-1.73458e-51
-5.02565e-47
-2.00817e-50
-5.24657e-46
-2.18823e-49
-5.43843e-45
-2.28759e-48
-5.62486e-44
-2.25488e-47
-5.45871e-43
-2.07688e-46
-4.98248e-42
-1.78955e-45
-4.27127e-41
-1.44104e-44
-3.41106e-40
-1.08163e-43
-2.62391e-39
-7.55699e-43
-2.37991e-38
-4.97957e-42
-2.45245e-37
-3.17016e-41
-1.0301e-36
-1.70089e-40
-1.3289e-36
-5.02127e-40
-9.56829e-37
-6.18298e-40
-1.47154e-36
-2.24355e-40
-9.00011e-37
7.5664e-40
-1.6608e-37
3.52988e-39
-1.61958e-38
1.93397e-39
-1.11663e-39
2.73106e-40
-6.33351e-41
2.39798e-41
-3.27056e-42
1.62679e-42
-1.6102e-43
9.68091e-44
-7.77207e-45
5.35511e-45
-3.72303e-46
2.85186e-46
-1.78677e-47
1.48643e-47
-8.63788e-49
7.67801e-49
-4.17966e-50
3.96234e-50
-2.01569e-51
2.03256e-51
-9.66163e-53
1.0332e-52
-4.54257e-54
5.19557e-54
2.56558e-55
-1.07161e-69
-1.7233e-73
-1.36283e-67
-2.28284e-71
-8.64893e-66
-1.50884e-69
-3.73728e-64
-6.78658e-68
-1.24366e-62
-2.34976e-66
-3.40544e-61
-6.69178e-65
-7.9927e-60
-1.63302e-63
-1.65213e-58
-3.50942e-62
-3.06342e-57
-6.76703e-61
-5.16343e-56
-1.18677e-59
-7.98812e-55
-1.91199e-58
-1.14257e-53
-2.85135e-57
-1.51952e-52
-3.95948e-56
-1.88746e-51
-5.14453e-55
-2.19794e-50
-6.27979e-54
-2.41449e-49
-7.23122e-53
-2.67275e-48
-7.99057e-52
-2.91254e-47
-8.35218e-51
-2.98588e-46
-8.21261e-50
-2.8864e-45
-7.61121e-49
-2.63111e-44
-6.65211e-48
-2.25305e-43
-5.48199e-47
-1.83342e-42
-4.25181e-46
-1.54225e-41
-3.09567e-45
-1.45777e-40
-2.15374e-44
-1.04194e-39
-1.54603e-43
-3.28964e-39
-9.20505e-43
-5.1804e-39
-2.04325e-42
-5.87047e-39
-1.32325e-42
-5.57298e-39
7.44544e-44
-2.14397e-39
1.02699e-41
-2.8217e-40
1.50663e-41
-2.3834e-41
3.46339e-42
-1.57217e-42
3.97391e-43
-9.12877e-44
3.25117e-44
-4.93558e-45
2.22921e-45
-2.57051e-46
1.37872e-46
-1.31074e-47
8.03456e-48
-6.62444e-49
4.50886e-49
-3.34294e-50
2.47611e-50
-1.6763e-51
1.34477e-51
-8.32683e-53
7.19936e-53
-4.08998e-54
3.79287e-54
-1.96017e-55
1.96534e-55
9.94309e-57
-1.72324e-73
-7.20243e-78
-2.29963e-71
-1.00438e-75
-1.53161e-69
-6.98692e-74
-6.93917e-68
-3.30656e-72
-2.41905e-66
-1.20389e-70
-6.93374e-65
-3.60375e-69
-1.70247e-63
-9.2412e-68
-3.67995e-62
-2.08661e-66
-7.13556e-61
-4.22823e-65
-1.25822e-59
-7.79655e-64
-2.03797e-58
-1.32175e-62
-3.0554e-57
-2.07643e-61
-4.26542e-56
-3.04165e-60
-5.57165e-55
-4.17573e-59
-6.83766e-54
-5.39595e-58
-7.93298e-53
-6.5913e-57
-9.29991e-52
-7.73366e-56
-1.07229e-50
-8.60951e-55
-1.16966e-49
-9.05065e-54
-1.21061e-48
-9.00519e-53
-1.19227e-47
-8.48999e-52
-1.11919e-46
-7.58965e-51
-9.9517e-46
-6.43284e-50
-8.41291e-45
-5.15986e-49
-7.88192e-44
-3.90121e-48
-1.06046e-42
-2.80146e-47
-7.76375e-42
-2.01791e-46
-1.35768e-41
-1.3051e-45
-1.10403e-41
-3.67538e-45
-2.83669e-41
-2.63447e-45
-1.83337e-41
6.74671e-45
-3.71326e-42
4.67756e-44
-4.05123e-43
3.12034e-44
-3.20901e-44
5.0733e-45
-2.14273e-45
5.24453e-46
-1.29404e-46
4.26616e-47
-7.37113e-48
3.01206e-48
-4.04593e-49
1.95151e-49
-2.17378e-50
1.19425e-50
-1.15446e-51
7.04658e-52
-6.04222e-53
4.06377e-53
-3.11118e-54
2.28831e-54
-1.57492e-55
1.25808e-55
-7.73402e-57
6.75871e-57
3.52299e-58
-7.20147e-78
-1.01851e-81
-1.0116e-75
-1.49568e-79
-7.08845e-74
-1.09695e-77
-3.37782e-72
-5.47629e-76
-1.23787e-70
-2.10334e-74
-3.72836e-69
-6.64147e-73
-9.61705e-68
-1.79657e-71
-2.18352e-66
-4.27974e-70
-4.44824e-65
-9.15263e-69
-8.24474e-64
-1.7822e-67
-1.40483e-62
-3.19316e-66
-2.21801e-61
-5.30716e-65
-3.26524e-60
-8.23524e-64
-4.50499e-59
-1.1994e-62
-5.84997e-58
-1.64701e-61
-7.19511e-57
-2.14179e-60
-8.93551e-56
-2.67665e-59
-1.09465e-54
-3.18532e-58
-1.27244e-53
-3.58966e-57
-1.40794e-52
-3.841e-56
-1.48718e-51
-3.90805e-55
-1.50425e-50
-3.78498e-54
-1.46065e-49
-3.49085e-53
-1.35648e-48
-3.06251e-52
-1.20099e-47
-2.54808e-51
-1.12432e-46
-2.02567e-50
-1.4404e-45
-1.62696e-49
-1.33376e-44
-1.23161e-48
-3.79801e-44
-4.49069e-48
-5.39791e-44
-5.57901e-48
-8.17788e-44
-1.90519e-48
-3.59521e-44
5.40645e-47
-5.44485e-45
1.53027e-46
-5.30233e-46
4.75123e-47
-4.18551e-47
6.66663e-48
-2.88035e-48
6.68742e-49
-1.82228e-49
5.52942e-50
-1.09009e-50
4.0578e-51
-6.29063e-52
2.74732e-52
-3.54685e-53
1.76219e-53
-1.95237e-54
1.08975e-54
-1.04906e-55
6.50864e-56
-5.5059e-57
3.76163e-57
-2.7855e-58
2.10881e-58
1.13919e-59
-1.01848e-81
-3.743e-86
-1.50567e-79
-5.80053e-84
-1.11192e-77
-4.4974e-82
-5.58738e-76
-2.3753e-80
-2.15924e-74
-9.65463e-79
-6.8582e-73
-3.22702e-77
-1.86557e-71
-9.24268e-76
-4.46669e-70
-2.33156e-74
-9.60026e-69
-5.28308e-73
-1.8784e-67
-1.09062e-71
-3.38139e-66
-2.07327e-70
-5.64602e-65
-3.65959e-69
-8.80108e-64
-6.03775e-68
-1.28761e-62
-9.36186e-67
-1.77606e-61
-1.37067e-65
-2.32333e-60
-1.90326e-64
-3.05679e-59
-2.53475e-63
-3.99299e-58
-3.23277e-62
-4.96022e-57
-3.91965e-61
-5.87911e-56
-4.53271e-60
-6.66829e-55
-5.00922e-59
-7.2604e-54
-5.29913e-58
-7.60812e-53
-5.37259e-57
-7.64923e-52
-5.22301e-56
-7.34258e-51
-4.86396e-55
-7.36482e-50
-4.32292e-54
-1.00761e-48
-3.67289e-53
-1.06104e-47
-3.14353e-52
-3.12115e-47
-2.70987e-51
-7.73871e-47
-1.10436e-50
-2.52946e-46
-1.13959e-50
-2.00678e-46
1.60907e-50
-5.24091e-47
2.87626e-49
-6.94199e-48
2.94142e-49
-6.71393e-49
6.43681e-50
-5.39382e-50
8.41893e-51
-3.85846e-51
8.42458e-52
-2.5509e-52
7.16256e-53
-1.59915e-53
5.45591e-54
-9.6641e-55
3.85482e-55
-5.64056e-56
2.58397e-56
-3.18544e-57
1.65188e-57
-1.74434e-58
1.01149e-58
-9.14326e-60
5.95824e-60
3.35637e-61
-3.74292e-86
-8.33833e-91
-5.83869e-84
-1.37486e-88
-4.55654e-82
-1.13318e-86
-2.42108e-80
-6.35873e-85
-9.89826e-79
-2.74605e-83
-3.3269e-77
-9.75344e-82
-9.57586e-76
-2.9686e-80
-2.42745e-74
-7.96163e-79
-5.52618e-73
-1.91882e-77
-1.14596e-71
-4.21559e-76
-2.18802e-70
-8.53466e-75
-3.87869e-69
-1.60576e-73
-6.42618e-68
-2.82669e-72
-1.00055e-66
-4.68189e-71
-1.47088e-65
-7.33178e-70
-2.05233e-64
-1.09038e-68
-2.84518e-63
-1.55416e-67
-3.97321e-62
-2.13152e-66
-5.2944e-61
-2.78283e-65
-6.75677e-60
-3.47068e-64
-8.28559e-59
-4.14358e-63
-9.79439e-58
-4.74407e-62
-1.11983e-56
-5.21621e-61
-1.24243e-55
-5.51263e-60
-1.33592e-54
-5.59929e-59
-1.37789e-53
-5.45598e-58
-1.46163e-52
-5.07884e-57
-2.22784e-51
-4.51969e-56
-3.16896e-50
-3.95854e-55
-1.1573e-49
-3.29647e-54
-1.77989e-49
-1.49945e-53
-6.2993e-49
-1.82367e-53
-3.5329e-49
1.5524e-52
-6.97826e-50
6.76606e-52
-8.68968e-51
4.41636e-52
-8.40265e-52
8.27144e-53
-6.94314e-53
1.04824e-53
-5.15532e-54
1.06221e-54
-3.55592e-55
9.28717e-56
-2.3275e-56
7.33834e-57
-1.45321e-57
5.39685e-58
-8.69142e-59
3.72988e-59
-4.99915e-60
2.44032e-60
-2.7312e-61
1.52157e-61
8.99657e-63
-8.34911e-91
-5.25887e-95
-1.3844e-88
-9.31436e-93
-1.14756e-86
-8.21437e-91
-6.47416e-85
-4.92315e-89
-2.81116e-83
-2.26955e-87
-1.00363e-81
-8.60259e-86
-3.06951e-80
-2.79419e-84
-8.27049e-79
-7.99901e-83
-2.00204e-77
-2.05842e-81
-4.41705e-76
-4.83094e-80
-8.97919e-75
-1.04545e-78
-1.69614e-73
-2.10411e-77
-2.99748e-72
-3.96579e-76
-4.98383e-71
-7.04013e-75
-7.83372e-70
-1.18295e-73
-1.16963e-68
-1.88983e-72
-1.71016e-67
-2.8866e-71
-2.56159e-66
-4.26699e-70
-3.66473e-65
-6.01911e-69
-5.0262e-64
-8.13436e-68
-6.6296e-63
-1.05562e-66
-8.43633e-62
-1.31819e-65
-1.03896e-60
-1.58666e-64
-1.24221e-59
-1.84313e-63
-1.44576e-58
-2.06741e-62
-1.63576e-57
-2.23754e-61
-1.79231e-56
-2.32877e-60
-2.01413e-55
-2.32711e-59
-2.84576e-54
-2.32097e-58
-3.74135e-53
-2.44796e-57
-3.05683e-52
-1.42942e-56
-1.17956e-51
-2.34455e-56
-1.15974e-51
-5.8628e-57
-5.10901e-52
8.0549e-55
-8.85336e-53
1.7953e-54
-1.07329e-53
6.05128e-55
-1.05184e-54
1.04135e-55
-8.93945e-56
1.3061e-56
-6.88365e-57
1.34353e-57
-4.9372e-58
1.2086e-58
-3.32959e-59
9.88679e-60
-2.12632e-60
7.4694e-61
-1.29382e-61
5.27007e-62
-7.41405e-63
3.50576e-63
2.19085e-64
-5.25879e-95
-8.36017e-100
-9.36695e-93
-1.60139e-97
-8.30799e-91
-1.51968e-95
-5.00621e-89
-9.77786e-94
-2.31966e-87
-4.83296e-92
-8.83506e-86
-1.96295e-90
-2.88258e-84
-6.83004e-89
-8.28778e-83
-2.09476e-87
-2.14144e-81
-5.77634e-86
-5.04544e-80
-1.45328e-84
-1.09599e-78
-3.37337e-83
-2.21391e-77
-7.28745e-82
-4.18759e-76
-1.47549e-80
-7.45972e-75
-2.81634e-79
-1.2577e-73
-5.09343e-78
-2.01573e-72
-8.76701e-77
-3.09754e-71
-1.44233e-75