/*--------------------------------*- C++ -*----------------------------------*\
| =========                 |                                                 |
| \\      /  F ield         | OpenFOAM: The Open Source CFD Toolbox           |
|  \\    /   O peration     | Version:  5.0                                   |
|   \\  /    A nd           | Web:      www.OpenFOAM.org                      |
|    \\/     M anipulation  |                                                 |
\*---------------------------------------------------------------------------*/
FoamFile
{
    version     2.0;
    format      ascii;
    class       volScalarField;
    location    "0.1";
    object      epsilon;
}
// * * * * * * * * * * * * * * * * * * * * * * * * * * * * * * * * * * * * * //

dimensions      [0 2 -3 0 0 0 0];

internalField   nonuniform List<scalar> 
1915
(
0.147975
0.175005
0.213325
0.267026
0.340983
0.408777
0.392772
0.332439
0.265354
0.209052
0.167748
0.139679
0.121424
0.109815
0.10248
0.0978134
0.0947853
0.0927571
0.0913416
0.0903071
0.0895148
0.0888806
0.0883512
0.08789
0.0874711
0.68577
0.3216
0.236255
0.191295
0.161847
0.14112
0.126146
0.115259
0.1074
0.101853
0.098116
0.0958486
0.094837
0.0949839
0.0963111
0.0989745
0.103293
0.109796
0.11929
0.132957
0.152501
0.180316
0.219709
0.275088
0.351886
0.417686
0.391635
0.326731
0.259316
0.20451
0.164985
0.138354
0.121062
0.110011
0.102948
0.0983729
0.095333
0.0932415
0.0917429
0.0906231
0.0897522
0.0890495
0.0884626
0.0879552
0.0874984
0.697591
0.330389
0.238374
0.191686
0.161927
0.141247
0.126389
0.11564
0.107932
0.102551
0.0990072
0.0969702
0.0962346
0.0967099
0.0984216
0.101526
0.106336
0.113369
0.123411
0.137619
0.157664
0.185928
0.225774
0.281841
0.360111
0.420679
0.384447
0.31604
0.250049
0.198205
0.161449
0.136813
0.120749
0.110354
0.103578
0.0990729
0.0959892
0.0938035
0.0921965
0.0909725
0.0900096
0.0892296
0.0885795
0.0880215
0.0875259
0.713354
0.349201
0.242943
0.193168
0.162726
0.141921
0.127082
0.1164
0.108798
0.103577
0.100252
0.0984972
0.0981124
0.0990097
0.101215
0.104878
0.110301
0.117975
0.128644
0.143399
0.163816
0.192154
0.231641
0.286931
0.364456
0.412907
0.366656
0.29836
0.236894
0.19007
0.157225
0.135136
0.120529
0.110858
0.104363
0.0998965
0.0967338
0.0944237
0.0926851
0.0913406
0.0902751
0.0894111
0.0886942
0.0880841
0.0875487
0.747101
0.38665
0.250747
0.196655
0.165013
0.143663
0.128516
0.117702
0.110112
0.105016
0.101926
0.100516
0.100579
0.102021
0.104864
0.109248
0.115454
0.123938
0.135381
0.150771
0.171525
0.199653
0.237948
0.290564
0.364025
0.393658
0.337775
0.274147
0.220661
0.180761
0.152708
0.133518
0.120471
0.111525
0.105276
0.100808
0.0975312
0.0950706
0.093183
0.0917072
0.0905329
0.0895821
0.0887976
0.088136
0.0875623
0.810661
0.408542
0.259616
0.20242
0.16925
0.14684
0.130842
0.119576
0.111849
0.106843
0.104025
0.103047
0.103689
0.105844
0.10952
0.114843
0.122071
0.131616
0.144085
0.160334
0.18159
0.209565
0.246242
0.29421
0.356431
0.35936
0.301205
0.247048
0.203787
0.171598
0.148519
0.132198
0.12063
0.112327
0.106261
0.101746
0.098327
0.0957001
0.0936559
0.0920464
0.0907641
0.0897288
0.0888798
0.0881699
0.0875613
0.833359
0.399066
0.265956
0.207704
0.172975
0.149585
0.132892
0.121248
0.113473
0.108666
0.10626
0.105892
0.107327
0.110437
0.115216
0.121773
0.130344
0.141304
0.155175
0.172654
0.194763
0.223076
0.259046
0.30098
0.330467
0.306825
0.262524
0.221856
0.188979
0.163876
0.145178
0.131319
0.12098
0.113177
0.107219
0.102622
0.0990493
0.096257
0.0940631
0.0923289
0.0909476
0.0898363
0.0889304
0.0881787
0.0875406
0.833245
0.38981
0.262898
0.206492
0.172899
0.14962
0.133053
0.121599
0.114076
0.109665
0.10783
0.108199
0.110516
0.114636
0.120534
0.128299
0.138132
0.150344
0.165319
0.183431
0.205004
0.230124
0.258257
0.280962
0.282149
0.261592
0.231388
0.202249
0.177696
0.158114
0.142784
0.130796
0.121371
0.11392
0.108012
0.103327
0.0996154
0.0966808
0.0943611
0.092524
0.0910624
0.0898902
0.0889393
0.0881556
0.0874958
0.829692
0.366711
0.252727
0.199385
0.168208
0.147268
0.132429
0.122068
0.115167
0.111116
0.109517
0.110076
0.112578
0.116895
0.122994
0.130928
0.140824
0.152851
0.167157
0.183725
0.20218
0.221345
0.238625
0.248724
0.245524
0.230076
0.209116
0.188123
0.169539
0.153904
0.140974
0.13032
0.121549
0.114354
0.108489
0.103747
0.0999436
0.0969141
0.0945104
0.0926049
0.0910901
0.0898782
0.0888987
0.0880953
0.0874234
0.835245
0.349205
0.242239
0.192246
0.162954
0.143763
0.130471
0.121217
0.115054
0.111446
0.110057
0.110652
0.113068
0.117206
0.123031
0.130559
0.139831
0.150867
0.163589
0.177695
0.192454
0.206468
0.21739
0.222157
0.218483
0.207539
0.192929
0.17761
0.163216
0.150367
0.13915
0.129477
0.121226
0.114278
0.108508
0.103786
0.0999683
0.0969124
0.0944813
0.0925517
0.0910179
0.0897921
0.0888032
0.0879947
0.0873216
0.85207
0.341647
0.236598
0.18788
0.159347
0.140984
0.128566
0.120069
0.114461
0.111179
0.109897
0.110408
0.112578
0.116326
0.121611
0.128413
0.1367
0.146378
0.157228
0.168805
0.180329
0.190576
0.197918
0.200672
0.197949
0.190534
0.180296
0.168881
0.15745
0.146639
0.136746
0.127907
0.120174
0.113548
0.107981
0.103388
0.0996539
0.0966535
0.0942597
0.092356
0.0908408
0.089629
0.0886515
0.0878532
0.0871903
0.859138
0.338924
0.234576
0.186179
0.157604
0.139293
0.127104
0.118914
0.113575
0.110453
0.10918
0.109538
0.111396
0.114672
0.119314
0.125268
0.132454
0.140717
0.149774
0.159164
0.168191
0.175926
0.181295
0.183355
0.181684
0.176692
0.169351
0.160618
0.151347
0.142146
0.133416
0.125414
0.118292
0.112118
0.106888
0.102548
0.0990023
0.0961414
0.0938503
0.0920221
0.0905624
0.089392
0.0884462
0.087673
0.0870312
0.852585
0.337014
0.234048
0.186012
0.157248
0.13865
0.12628
0.118023
0.112669
0.109511
0.108126
0.108263
0.109768
0.112543
0.116514
0.121605
0.127706
0.134637
0.142112
0.149711
0.156866
0.162891
0.167067
0.168807
0.16785
0.164382
0.158938
0.152098
0.144503
0.136698
0.129102
0.122016
0.115632
0.110049
0.10529
0.101316
0.0980534
0.0954064
0.0932756
0.0915663
0.0901948
0.0890901
0.0881937
0.0874589
0.0868481
0.839067
0.334627
0.233671
0.186298
0.157534
0.138664
0.125987
0.117478
0.111923
0.108574
0.106968
0.106813
0.107924
0.110177
0.113477
0.117727
0.1228
0.128514
0.134606
0.140716
0.146393
0.151129
0.154419
0.155865
0.155279
0.152745
0.148584
0.143163
0.136967
0.130453
0.124006
0.117916
0.112377
0.107497
0.103308
0.0997874
0.096877
0.0944995
0.092572
0.0910148
0.0897565
0.0887363
0.0879037
0.0872179
0.086646
0.822528
0.331758
0.232998
0.186455
0.157894
0.138897
0.12596
0.117166
0.111338
0.10772
0.105822
0.105322
0.106007
0.107726
0.110362
0.1138
0.117908
0.12251
0.127374
0.132202
0.13664
0.140306
0.142839
0.143958
0.143526
0.141589
0.138355
0.134075
0.129104
0.123804
0.118496
0.113434
0.108792
0.104669
0.101101
0.0980791
0.0955595
0.0934829
0.0917841
0.0903991
0.0892701
0.0883468
0.0875875
0.0869581
0.0864309
0.805546
0.328723
0.232034
0.186304
0.158051
0.139056
0.125956
0.116925
0.110828
0.106922
0.104707
0.103842
0.10409
0.105278
0.107271
0.109941
0.113154
0.116747
0.120521
0.124232
0.127608
0.130363
0.132237
0.133033
0.132657
0.131136
0.128613
0.125294
0.121402
0.117215
0.112985
0.108916
0.105151
0.101778
0.0988322
0.0963119
0.0941889
0.0924204
0.0909577
0.0897522
0.0887588
0.0879383
0.0872573
0.0866883
0.0862089
0.789235
0.325737
0.230897
0.185872
0.157938
0.13902
0.125841
0.116636
0.110312
0.106139
0.103618
0.102395
0.10222
0.102904
0.104297
0.106266
0.108675
0.111378
0.114206
0.116965
0.119448
0.121445
0.122771
0.123292
0.122943
0.121748
0.119806
0.117278
0.114309
0.111097
0.107826
0.104652
0.101689
0.0990068
0.0966389
0.0945895
0.0928422
0.0913685
0.090134
0.0891037
0.0882444
0.0875264
0.0869243
0.0864167
0.0859859
0.773883
0.322895
0.229694
0.185249
0.157596
0.13878
0.125574
0.116253
0.109749
0.105347
0.10255
0.101002
0.100441
0.100671
0.101531
0.102885
0.104604
0.106554
0.108595
0.110574
0.112337
0.113732
0.11463
0.11494
0.114622
0.113694
0.112225
0.110329
0.108121
0.105718
0.103255
0.100843
0.0985669
0.0964834
0.0946214
0.0929887
0.0915776
0.0903708
0.0893456
0.0884781
0.0877449
0.0871245
0.0865983
0.0861503
0.0857672
0.759434
0.320213
0.22849
0.18452
0.157096
0.138379
0.125173
0.115775
0.109132
0.104542
0.101512
0.0996834
0.0987916
0.0986323
0.099043
0.099886
0.101038
0.10238
0.103795
0.105164
0.106372
0.107311
0.107893
0.108057
0.107777
0.107067
0.105976
0.104577
0.102962
0.1012
0.099381
0.0975828
0.0958673
0.0942771
0.0928367
0.0915556
0.0904319
0.0894564
0.0886151
0.0878928
0.0872735
0.0867426
0.0862869
0.085895
0.0855572
0.745789
0.317687
0.227325
0.183753
0.156513
0.137878
0.124681
0.115229
0.108482
0.103743
0.100523
0.0984643
0.0973001
0.0968239
0.0968715
0.0973074
0.0980142
0.098886
0.0998245
0.100737
0.101536
0.102146
0.102506
0.102575
0.102338
0.101802
0.101001
0.0999834
0.0988092
0.0975353
0.0962093
0.0948856
0.0936078
0.0924076
0.0913049
0.0903093
0.0894225
0.0886404
0.0879554
0.0873582
0.0868389
0.0863876
0.0859956
0.085655
0.0853589
0.732872
0.315314
0.226231
0.183002
0.155906
0.137335
0.124145
0.114655
0.107828
0.102973
0.0996021
0.0973608
0.0959808
0.0952553
0.0950208
0.0951444
0.0955148
0.0960367
0.0966259
0.0972081
0.0977177
0.0980994
0.0983105
0.0983232
0.0981265
0.0977258
0.0971417
0.0964061
0.0955579
0.0946382
0.0936766
0.0927074
0.0917606
0.0908592
0.0900189
0.0892485
0.0885514
0.0879268
0.0873711
0.0868793
0.0864454
0.0860634
0.0857275
0.0854328
0.0851745
0.720603
0.313087
0.225219
0.182295
0.155314
0.136788
0.123603
0.114082
0.107193
0.102248
0.0987611
0.096378
0.0948317
0.093916
0.0934687
0.0933601
0.0934842
0.0937537
0.0940953
0.0944472
0.0947581
0.0949864
0.0951012
0.0950824
0.0949219
0.0946225
0.0941968
0.0936649
0.0930518
0.0923838
0.0916862
0.0909759
0.0902738
0.0895962
0.0889553
0.0883588
0.0878106
0.0873117
0.0868611
0.0864564
0.0860943
0.0857714
0.0854842
0.0852298
0.0850051
0.708931
0.310992
0.224286
0.181641
0.154754
0.136261
0.123076
0.11353
0.106594
0.10158
0.0980042
0.0955133
0.0938414
0.0927837
0.0921797
0.0919025
0.0918508
0.0919429
0.092113
0.0923082
0.0924862
0.0926143
0.0926687
0.0926343
0.0925043
0.0922796
0.0919675
0.0915807
0.0911349
0.0906474
0.0901351
0.0896111
0.0890871
0.0885749
0.0880836
0.0876195
0.0871867
0.0867869
0.0864205
0.0860868
0.0857843
0.0855112
0.0852657
0.0850463
0.0848511
0.697809
0.309017
0.223431
0.181046
0.154238
0.13577
0.122583
0.113016
0.106043
0.100976
0.0973321
0.0947599
0.0929944
0.091832
0.0911144
0.090717
0.0905417
0.0905112
0.0905648
0.0906552
0.090746
0.0908099
0.0908277
0.0907871
0.090682
0.090512
0.0902811
0.0899969
0.0896693
0.0893096
0.0889288
0.0885376
0.0881425
0.0877516
0.0873717
0.087008
0.0866639
0.0863417
0.0860424
0.0857662
0.0855127
0.0852813
0.0850712
0.0848818
0.0847121
0.687158
0.30716
0.222659
0.180519
0.153779
0.135329
0.122137
0.112552
0.105548
0.100439
0.0967427
0.0941089
0.0922735
0.0910345
0.0902351
0.0897525
0.0894912
0.0893768
0.089352
0.0893731
0.0894074
0.0894312
0.0894277
0.0893863
0.0893014
0.0891715
0.0889986
0.0887871
0.0885433
0.0882744
0.0879878
0.0876906
0.0873891
0.0870874
0.0867905
0.0865027
0.0862269
0.0859653
0.0857192
0.0854894
0.0852761
0.0850794
0.0848991
0.0847353
0.0845876
0.676913
0.305425
0.221975
0.180065
0.153385
0.134945
0.121746
0.112143
0.105111
0.0999675
0.0962303
0.0935491
0.0916614
0.0903662
0.0895078
0.0889651
0.0886442
0.0884727
0.0883954
0.0883711
0.0883694
0.0883685
0.0883533
0.0883141
0.0882455
0.0881454
0.0880144
0.0878549
0.0876709
0.0874669
0.0872481
0.0870194
0.0867855
0.0865495
0.0863148
0.0860846
0.0858614
0.0856473
0.0854436
0.0852512
0.0850708
0.0849028
0.0847476
0.0846055
0.0844767
0.667127
0.303818
0.221373
0.179679
0.153051
0.134617
0.121408
0.111786
0.10473
0.0995573
0.0957869
0.0930692
0.091142
0.0898053
0.0889044
0.0883193
0.087957
0.0877467
0.0876345
0.0875806
0.0875561
0.0875403
0.0875193
0.0874837
0.0874284
0.0873507
0.0872503
0.0871285
0.0869877
0.0868308
0.0866614
0.0864828
0.0862986
0.0861116
0.0859238
0.0857377
0.0855554
0.0853786
0.0852087
0.0850466
0.0848931
0.084749
0.0846147
0.0844911
0.0843784
0.657974
0.302344
0.220843
0.17935
0.152767
0.134336
0.121115
0.111475
0.104399
0.0992018
0.095405
0.0926588
0.0907018
0.0893344
0.0884027
0.0877873
0.0873963
0.0871594
0.0870239
0.0869508
0.086912
0.0868876
0.0868641
0.0868327
0.0867881
0.0867275
0.0866499
0.0865559
0.0864467
0.0863245
0.0861916
0.0860504
0.0859035
0.0857532
0.0856012
0.0854492
0.0852988
0.0851515
0.0850086
0.084871
0.0847396
0.0846153
0.0844986
0.0843905
0.0842915
0.649608
0.301007
0.220376
0.179067
0.152524
0.134094
0.120862
0.111207
0.104113
0.0988959
0.095078
0.0923097
0.0903299
0.0889396
0.0879853
0.0873482
0.0869369
0.0866817
0.0865305
0.0864448
0.086397
0.0863677
0.0863438
0.0863166
0.0862807
0.0862333
0.086173
0.0860997
0.0860142
0.0859179
0.0858124
0.0856994
0.0855809
0.0854585
0.0853341
0.0852085
0.0850832
0.0849594
0.0848382
0.0847206
0.0846074
0.0844994
0.0843975
0.0843025
0.084215
0.642013
0.299796
0.219964
0.178825
0.152318
0.133889
0.120647
0.110978
0.103869
0.0986358
0.0948009
0.0920151
0.0900177
0.08861
0.0876388
0.0869859
0.08656
0.086292
0.08613
0.0860359
0.0859825
0.0859506
0.0859273
0.085904
0.0858753
0.0858382
0.0857911
0.0857337
0.0856662
0.0855895
0.0855047
0.0854133
0.0853165
0.0852158
0.0851125
0.0850077
0.0849023
0.0847972
0.0846936
0.0845922
0.0844939
0.0843995
0.0843099
0.0842258
0.0841481
0.635051
0.298687
0.219598
0.178618
0.152145
0.133716
0.120466
0.110786
0.103664
0.0984176
0.0945691
0.0917695
0.0897583
0.0883372
0.0873534
0.0866886
0.0862521
0.085975
0.0858054
0.0857058
0.0856489
0.0856157
0.0855935
0.0855737
0.0855509
0.0855219
0.0854851
0.0854397
0.0853859
0.0853242
0.0852554
0.0851804
0.0851005
0.0850166
0.0849298
0.0848411
0.0847513
0.0846612
0.0845717
0.0844834
0.0843973
0.084314
0.0842345
0.0841596
0.0840901
0.628619
0.297656
0.219266
0.178437
0.151998
0.133573
0.120316
0.110626
0.103494
0.0982376
0.0943786
0.0915684
0.0895469
0.0881159
0.0871226
0.0864492
0.086005
0.0857213
0.0855466
0.0854432
0.0853841
0.0853504
0.0853294
0.0853125
0.0852944
0.0852717
0.0852427
0.0852066
0.0851632
0.0851128
0.0850561
0.0849937
0.0849266
0.0848555
0.0847815
0.0847052
0.0846276
0.0845492
0.0844707
0.0843929
0.0843164
0.0842421
0.0841707
0.0841032
0.0840403
0.622738
0.296694
0.218957
0.178275
0.151871
0.13345
0.120189
0.110494
0.103355
0.0980921
0.0942265
0.0914098
0.0893817
0.0879441
0.0869447
0.0862655
0.0858162
0.085528
0.0853497
0.0852437
0.0851832
0.0851492
0.0851292
0.0851145
0.0850999
0.0850819
0.0850587
0.0850293
0.0849936
0.0849516
0.0849038
0.0848507
0.084793
0.0847314
0.0846668
0.0845998
0.0845311
0.0844613
0.084391
0.0843208
0.0842515
0.0841838
0.0841185
0.0840566
0.0839987
0.617494
0.295813
0.218668
0.178122
0.151751
0.133337
0.120076
0.11038
0.103241
0.0979777
0.0941118
0.0912944
0.089265
0.0878256
0.0868238
0.086142
0.08569
0.0853993
0.0852187
0.0851109
0.0850492
0.0850149
0.0849953
0.084982
0.0849695
0.0849546
0.0849352
0.0849105
0.0848799
0.0848436
0.0848018
0.084755
0.0847036
0.0846483
0.0845897
0.0845285
0.0844653
0.0844007
0.0843353
0.0842696
0.0842045
0.0841407
0.084079
0.0840205
0.0839657
0.612976
0.29505
0.218402
0.177962
0.151616
0.133209
0.119956
0.11027
0.103142
0.0978905
0.0940355
0.0912274
0.0892053
0.087771
0.0867724
0.0860921
0.0856404
0.0853491
0.0851675
0.0850585
0.0849957
0.0849606
0.0849407
0.0849275
0.0849159
0.0849023
0.0848848
0.0848625
0.0848347
0.0848015
0.0847629
0.0847192
0.0846708
0.0846183
0.084562
0.0845025
0.0844405
0.0843766
0.0843115
0.0842459
0.0841806
0.0841167
0.084055
0.0839967
0.0839425
0.609411
0.294503
0.218168
0.177762
0.151416
0.133019
0.119788
0.110134
0.103041
0.097825
0.0940016
0.0912202
0.0892196
0.0878017
0.0868147
0.086142
0.0856948
0.0854056
0.0852244
0.0851148
0.0850508
0.0850143
0.084993
0.0849787
0.0849661
0.0849521
0.0849345
0.0849123
0.0848849
0.084852
0.0848136
0.0847697
0.0847206
0.0846664
0.0846074
0.0845441
0.084477
0.084407
0.0843351
0.0842623
0.0841899
0.0841193
0.0840519
0.0839888
0.0839311
0.607742
0.294453
0.218005
0.177456
0.151053
0.13267
0.119498
0.109921
0.102911
0.0977731
0.0940182
0.0912939
0.0893385
0.0879549
0.0869926
0.0863369
0.0859003
0.085617
0.0854384
0.085329
0.0852637
0.0852251
0.0852012
0.0851842
0.0851691
0.0851526
0.0851327
0.0851083
0.0850786
0.0850432
0.0850017
0.0849539
0.0848994
0.0848381
0.0847698
0.0846946
0.0846129
0.0845257
0.0844347
0.0843422
0.0842503
0.0841617
0.0840786
0.0840026
0.0839349
0.610884
0.295744
0.218066
0.176932
0.150342
0.131989
0.11895
0.109545
0.102707
0.097724
0.0941013
0.091484
0.089612
0.0882907
0.0873733
0.0867483
0.0863314
0.0860598
0.0858868
0.0857791
0.0857127
0.0856714
0.0856438
0.0856227
0.0856032
0.0855822
0.0855579
0.085529
0.0854945
0.0854537
0.0854059
0.0853502
0.0852854
0.0852104
0.0851239
0.0850252
0.0849139
0.0847914
0.0846603
0.0845253
0.0843917
0.0842647
0.0841488
0.0840463
0.0839583
0.627511
0.300744
0.218794
0.175994
0.148941
0.130669
0.117924
0.108868
0.102363
0.0976689
0.094282
0.09185
0.0901188
0.0889011
0.0880574
0.0874826
0.0870984
0.0868463
0.0866838
0.0865801
0.0865137
0.0864695
0.0864376
0.0864111
0.0863859
0.0863589
0.0863285
0.0862933
0.0862521
0.0862039
0.0861473
0.0860804
0.0860008
0.0859055
0.0857908
0.0856534
0.0854909
0.0853033
0.0850952
0.0848761
0.0846598
0.0844584
0.0842804
0.0841295
0.0840055
0.684248
0.315383
0.22101
0.174151
0.146193
0.12819
0.116084
0.107709
0.101811
0.0976154
0.0946205
0.0924868
0.0909766
0.0899186
0.0891868
0.0886881
0.0883533
0.0881317
0.0879863
0.0878907
0.0878264
0.0877805
0.0877446
0.0877128
0.0876816
0.0876483
0.0876115
0.0875696
0.0875216
0.0874659
0.0874004
0.0873221
0.0872266
0.0871077
0.0869574
0.0867662
0.0865245
0.0862266
0.0858764
0.0854945
0.085119
0.0847794
0.0844917
0.0842593
0.084078
0.855552
0.35055
0.224435
0.169688
0.140756
0.123741
0.113002
0.105888
0.101021
0.0976258
0.095233
0.093543
0.0923536
0.0915229
0.0909488
0.0905567
0.0902918
0.0901142
0.0899949
0.0899136
0.0898557
0.0898114
0.0897742
0.0897395
0.0897045
0.0896673
0.0896265
0.089581
0.0895294
0.0894703
0.0894009
0.0893172
0.0892129
0.0890778
0.0888969
0.088649
0.0883063
0.0878397
0.0872345
0.086525
0.0858415
0.0852553
0.0847876
0.0844316
0.0841689
1.35962
0.408937
0.219499
0.157045
0.130096
0.116298
0.108356
0.103397
0.100124
0.0978886
0.0963327
0.0952411
0.0944754
0.093941
0.093571
0.0933171
0.0931438
0.0930257
0.0929442
0.0928862
0.0928425
0.0928068
0.0927749
0.0927439
0.0927121
0.0926781
0.092641
0.0926001
0.0925545
0.0925027
0.0924426
0.09237
0.0922783
0.0921554
0.0919803
0.0917167
0.0913029
0.0906413
0.0896043
0.088139
0.0868512
0.0858559
0.0851294
0.0846148
0.0842569
3.19896
0.385123
0.168725
0.125694
0.111658
0.105645
0.102553
0.100742
0.0995833
0.0988023
0.0982604
0.09788
0.0976126
0.0974255
0.0972957
0.0972062
0.097145
0.0971028
0.0970734
0.0970518
0.0970351
0.0970207
0.0970074
0.0969939
0.0969798
0.0969644
0.0969475
0.0969289
0.0969081
0.0968848
0.096858
0.0968261
0.0967857
0.0967302
0.0966455
0.0964995
0.0962154
0.0955972
0.0941183
0.090277
0.0879034
0.0863835
0.0853929
0.0847406
0.0843092
)
;

boundaryField
{
    leftWall
    {
        Cmu             0.09;
        kappa           0.41;
        E               9.8;
        type            epsilonWallFunction;
        value           nonuniform List<scalar> 
42
(
0.68577
0.697591
0.713354
0.747101
0.810661
0.833359
0.833245
0.829692
0.835245
0.85207
0.859138
0.852585
0.839067
0.822528
0.805546
0.789235
0.773883
0.759434
0.745789
0.732872
0.720603
0.708931
0.697809
0.687158
0.676913
0.667127
0.657974
0.649608
0.642013
0.635051
0.628619
0.622738
0.617494
0.612976
0.609411
0.607742
0.610884
0.627511
0.684248
0.855552
1.35962
3.19896
)
;
    }
    rightWall
    {
        Cmu             0.09;
        kappa           0.41;
        E               9.8;
        type            epsilonWallFunction;
        value           nonuniform 0();
    }
    lowerWall
    {
        Cmu             0.09;
        kappa           0.41;
        E               9.8;
        type            epsilonWallFunction;
        value           nonuniform 0();
    }
    atmosphere
    {
        type            inletOutlet;
        inletValue      uniform 0.1;
        value           nonuniform List<scalar> 
45
(
0.1
0.1
0.1
0.1
0.1
0.1
0.1
0.1
0.1
0.1
0.1
0.1
0.1
0.1
0.1
0.1
0.1
0.1
0.1
0.1
0.1
0.1
0.1
0.1
0.1
0.1
0.1
0.1
0.1
0.1
0.1
0.1
0.1
0.1
0.1
0.1
0.1
0.1
0.1
0.090277
0.0879034
0.0863835
0.0853929
0.0847406
0.0843092
)
;
    }
    defaultFaces
    {
        type            empty;
    }
    procBoundary2to0
    {
        type            processor;
        value           nonuniform List<scalar> 
46
(
0.143902
0.169905
0.206746
0.258203
0.328731
0.398133
0.391894
0.335401
0.269172
0.212221
0.169853
0.140807
0.12183
0.10976
0.102173
0.0973993
0.0943546
0.0923604
0.0910028
0.0900338
0.0893053
0.0887292
0.0882506
0.0878325
0.0874486
0.675821
0.317792
0.235468
0.191385
0.162098
0.141286
0.126162
0.11512
0.107111
0.101411
0.0975099
0.0950551
0.093824
0.0937115
0.0947332
0.097041
0.100952
0.106996
0.115978
0.129077
0.129077
)
;
    }
    procBoundary2to3
    {
        type            processor;
        value           nonuniform List<scalar> 
43
(
0.0870712
0.0870695
0.0870678
0.0870617
0.0870481
0.0870232
0.0869834
0.0869256
0.0868477
0.0867487
0.0866286
0.0864889
0.0863325
0.0861628
0.0859842
0.0858011
0.0856178
0.0854382
0.0852654
0.0851017
0.0849487
0.0848075
0.0846784
0.0845613
0.0844558
0.0843613
0.0842769
0.084202
0.0841358
0.0840775
0.0840266
0.0839828
0.0839457
0.0839156
0.083893
0.0838792
0.0838757
0.0838843
0.0839063
0.08394
0.0839791
0.084011
0.0840236
)
;
    }
}


// ************************************************************************* //
