/*--------------------------------*- C++ -*----------------------------------*\
| =========                 |                                                 |
| \\      /  F ield         | OpenFOAM: The Open Source CFD Toolbox           |
|  \\    /   O peration     | Version:  5.0                                   |
|   \\  /    A nd           | Web:      www.OpenFOAM.org                      |
|    \\/     M anipulation  |                                                 |
\*---------------------------------------------------------------------------*/
FoamFile
{
    version     2.0;
    format      ascii;
    class       volScalarField;
    location    "0.1";
    object      k;
}
// * * * * * * * * * * * * * * * * * * * * * * * * * * * * * * * * * * * * * //

dimensions      [0 2 -2 0 0 0 0];

internalField   nonuniform List<scalar> 
1915
(
0.131801
0.144903
0.16201
0.184128
0.21228
0.236506
0.231901
0.210594
0.184762
0.161109
0.14218
0.12816
0.118214
0.11129
0.106484
0.103122
0.100735
0.0990091
0.0977353
0.0967738
0.0960306
0.0954411
0.0949599
0.0945535
0.0941974
0.0307988
0.0572991
0.0699537
0.0772661
0.0818846
0.0849565
0.0871161
0.0887503
0.090104
0.0913392
0.0925718
0.0938956
0.0954013
0.0971903
0.0993871
0.102151
0.105687
0.110261
0.116215
0.123993
0.134165
0.147458
0.164778
0.187205
0.215887
0.238895
0.230785
0.207848
0.181888
0.158859
0.140749
0.127449
0.118021
0.11142
0.106782
0.103483
0.101096
0.099336
0.0980122
0.0969967
0.0962018
0.095566
0.0950448
0.0946056
0.0942223
0.0312131
0.058013
0.0703131
0.0775562
0.0822034
0.085333
0.0875581
0.0892605
0.0906894
0.092013
0.0933526
0.0948066
0.0964682
0.0984395
0.100843
0.103834
0.107609
0.11242
0.118595
0.126556
0.136849
0.150183
0.167466
0.189832
0.218573
0.239321
0.227588
0.203261
0.177721
0.155858
0.138976
0.126648
0.117867
0.111637
0.107175
0.103929
0.101525
0.0997119
0.0983231
0.097242
0.0963869
0.0956989
0.0951339
0.0946589
0.0942476
0.0318703
0.0594032
0.0709642
0.0780927
0.0827607
0.0859352
0.0882074
0.0899652
0.0914669
0.0928869
0.094353
0.0959674
0.0978249
0.100027
0.102691
0.105963
0.110028
0.11512
0.121539
0.12967
0.140016
0.153228
0.170157
0.19194
0.220014
0.236329
0.22085
0.196154
0.172059
0.152126
0.136936
0.125817
0.117782
0.111951
0.107659
0.104447
0.102004
0.100122
0.0986549
0.0974986
0.0965769
0.0958325
0.0952215
0.0947096
0.0942696
0.0334879
0.0618083
0.0719828
0.0790503
0.0837468
0.086921
0.0891763
0.0909396
0.0924863
0.0939998
0.0956112
0.0974228
0.0995279
0.102023
0.105018
0.108646
0.113076
0.118515
0.125227
0.133549
0.143913
0.156874
0.173125
0.193645
0.219941
0.229679
0.210327
0.186682
0.165252
0.147981
0.134836
0.125061
0.117804
0.11236
0.108213
0.10501
0.102511
0.100544
0.0989891
0.0977516
0.0967601
0.095958
0.0953006
0.0947524
0.0942848
0.0346685
0.0635358
0.0729104
0.0803246
0.085192
0.0883601
0.0904952
0.0921857
0.0937396
0.0953407
0.0971206
0.0991798
0.101602
0.104475
0.107896
0.111982
0.11688
0.122768
0.129868
0.138453
0.148878
0.161587
0.176978
0.19551
0.217537
0.217996
0.197027
0.176151
0.158285
0.144009
0.132967
0.124495
0.117953
0.11284
0.108798
0.105578
0.103006
0.100948
0.0993013
0.0979825
0.0969225
0.0960648
0.0953636
0.0947818
0.094289
0.0349711
0.0622775
0.0726122
0.0808091
0.0861159
0.0894735
0.0916456
0.0933378
0.0949599
0.0967092
0.098729
0.101127
0.103977
0.107352
0.111333
0.116016
0.121524
0.128008
0.135638
0.144614
0.155204
0.167816
0.182669
0.198679
0.208893
0.199837
0.182831
0.166375
0.152259
0.140754
0.131544
0.124162
0.118194
0.11333
0.109348
0.106093
0.103442
0.101295
0.0995631
0.0981701
0.0970486
0.0961419
0.0954026
0.0947919
0.0942782
0.0349506
0.0615313
0.0716881
0.0800455
0.0858898
0.0896045
0.0920451
0.0939262
0.095721
0.0976914
0.100013
0.102796
0.106107
0.109999
0.11453
0.119778
0.125835
0.132813
0.140815
0.149898
0.160054
0.171147
0.182802
0.191647
0.191781
0.183523
0.171174
0.158748
0.14772
0.138379
0.130555
0.123979
0.118424
0.113728
0.109777
0.106483
0.103765
0.101544
0.0997446
0.0982929
0.0971233
0.0961785
0.09541
0.0947777
0.0942488
0.0349473
0.060302
0.0714419
0.0793239
0.0851838
0.0893635
0.0923515
0.0946693
0.0967513
0.0989004
0.101337
0.104203
0.107585
0.111544
0.116134
0.121414
0.127442
0.134267
0.141899
0.150247
0.159056
0.167745
0.175222
0.179421
0.17807
0.171607
0.162564
0.153142
0.144391
0.136606
0.129759
0.123746
0.118481
0.113909
0.109989
0.106678
0.103923
0.101659
0.099819
0.0983318
0.0971331
0.0961654
0.0953795
0.0947348
0.0941979
0.0352698
0.0599633
0.0718036
0.0793252
0.0848666
0.0890624
0.0922786
0.0948813
0.0971997
0.0995037
0.102004
0.104852
0.108152
0.111978
0.116386
0.121421
0.127107
0.133434
0.140326
0.147597
0.154876
0.161532
0.166583
0.168809
0.167316
0.162551
0.155932
0.148713
0.141618
0.134954
0.128813
0.123221
0.118196
0.113753
0.109899
0.106618
0.103873
0.10161
0.0997659
0.0982732
0.0970688
0.0960963
0.095307
0.0946605
0.0941238
0.0357403
0.0605616
0.0725471
0.0797446
0.0849147
0.0889381
0.0921808
0.0949054
0.0973484
0.0997244
0.102217
0.104971
0.108099
0.111682
0.115776
0.120413
0.125591
0.131259
0.137291
0.143458
0.149386
0.154524
0.158175
0.159638
0.158534
0.155169
0.150308
0.144676
0.138799
0.132988
0.127419
0.122207
0.11744
0.113177
0.109453
0.106267
0.103593
0.101382
0.0995759
0.0981107
0.0969264
0.0959688
0.0951911
0.0945542
0.0940262
0.0358711
0.0612475
0.0733639
0.0803689
0.0852224
0.0889912
0.0921046
0.094794
0.0972377
0.0995982
0.102024
0.104642
0.107559
0.110853
0.11458
0.118759
0.123372
0.128349
0.133545
0.138732
0.143579
0.147661
0.1505
0.15168
0.151006
0.148637
0.144988
0.14049
0.135541
0.13044
0.125405
0.120602
0.116157
0.112155
0.108641
0.105624
0.103084
0.100978
0.0992514
0.0978468
0.0967081
0.0957848
0.0950334
0.0944172
0.0939064
0.0356507
0.0616321
0.0739822
0.0809796
0.0856503
0.0891841
0.0920967
0.0946408
0.0969769
0.099235
0.101533
0.103976
0.106657
0.109644
0.112985
0.116693
0.120742
0.125053
0.129489
0.133842
0.137841
0.141161
0.143471
0.144497
0.144112
0.142387
0.139556
0.135889
0.131693
0.127239
0.122754
0.118422
0.11438
0.110721
0.107496
0.104718
0.10237
0.100416
0.0988071
0.0974925
0.0964221
0.0955505
0.0948385
0.094253
0.0937668
0.035251
0.0616913
0.0742975
0.0814101
0.0860321
0.0894112
0.0921338
0.094494
0.0966616
0.0987557
0.100875
0.103108
0.105528
0.108194
0.111144
0.114383
0.117882
0.121567
0.125312
0.128942
0.132236
0.134948
0.136835
0.137705
0.137463
0.136138
0.133877
0.130857
0.127316
0.123488
0.119586
0.115783
0.112213
0.108967
0.106093
0.103607
0.101496
0.0997297
0.0982675
0.0970657
0.0960814
0.0952754
0.0946134
0.0940667
0.0936113
0.0347716
0.0615206
0.0743348
0.0816004
0.086257
0.0895624
0.0921437
0.0943324
0.0963174
0.0982204
0.100132
0.102128
0.104269
0.106604
0.109158
0.111934
0.114901
0.117993
0.121102
0.124082
0.126757
0.128938
0.130444
0.131136
0.130942
0.129879
0.128044
0.125565
0.122622
0.119408
0.116105
0.112865
0.109808
0.107014
0.104528
0.102365
0.100517
0.0989606
0.097663
0.0965887
0.0957022
0.0949711
0.0943667
0.0938645
0.0934443
0.0342777
0.0612194
0.0741686
0.0815676
0.086289
0.0895735
0.0920631
0.0941129
0.0959292
0.0976413
0.0993385
0.101089
0.102944
0.104943
0.107106
0.109432
0.111891
0.114425
0.116946
0.119336
0.121457
0.123164
0.124325
0.124837
0.124651
0.123776
0.122283
0.12028
0.117889
0.115262
0.112547
0.109869
0.107329
0.104993
0.102902
0.101069
0.0994919
0.0981523
0.0970259
0.096085
0.0953018
0.0946503
0.0941074
0.0936531
0.0932709
0.0337978
0.0608558
0.0738729
0.0813631
0.0861452
0.0894323
0.0918655
0.0938097
0.0954824
0.0970194
0.0985113
0.100022
0.1016
0.103276
0.105065
0.106966
0.108952
0.110976
0.112967
0.114832
0.116466
0.117762
0.118623
0.118977
0.118789
0.11807
0.116872
0.115283
0.113386
0.111297
0.109127
0.106976
0.104923
0.103021
0.101306
0.0997904
0.0984738
0.0973449
0.0963861
0.095577
0.0948967
0.0943251
0.0938445
0.0934391
0.0930956
0.0333401
0.0604697
0.0735036
0.0810425
0.0858657
0.0891601
0.0915568
0.0934216
0.0949765
0.0963614
0.0976684
0.0989605
0.100281
0.10166
0.103109
0.104626
0.106191
0.107766
0.109297
0.110713
0.111936
0.11289
0.113505
0.113733
0.113551
0.112968
0.112025
0.110785
0.109318
0.107697
0.106007
0.104321
0.102701
0.101189
0.099812
0.0985839
0.0975058
0.0965712
0.0957685
0.0950834
0.0945008
0.0940061
0.0935858
0.0932281
0.0929229
0.0329052
0.0600811
0.0730975
0.0806514
0.0854941
0.0887911
0.0911607
0.0929642
0.0944241
0.0956817
0.09683
0.0979313
0.0990279
0.100146
0.1013
0.102487
0.103694
0.104892
0.10604
0.107088
0.10798
0.108662
0.109087
0.109222
0.109054
0.108592
0.107863
0.106913
0.105799
0.104569
0.103279
0.101986
0.100732
0.0995513
0.0984657
0.0974867
0.0966174
0.0958547
0.0951915
0.0946185
0.0941252
0.0937015
0.0933377
0.0930251
0.0927562
0.0324918
0.0596999
0.0726789
0.0802245
0.0850693
0.0883616
0.0907076
0.0924626
0.0938465
0.0950007
0.0960181
0.0969607
0.09787
0.0987723
0.0996809
0.100598
0.101513
0.102407
0.103251
0.10401
0.104645
0.105121
0.105406
0.105478
0.105331
0.10497
0.104416
0.103701
0.102865
0.101945
0.100978
0.0999994
0.0990435
0.0981344
0.0972894
0.0965183
0.0958251
0.0952091
0.0946664
0.0941914
0.0937773
0.0934173
0.0931048
0.0928336
0.0925984
0.0320971
0.0593303
0.0722631
0.079787
0.0846221
0.0879034
0.0902272
0.0919426
0.0932665
0.0943386
0.0952516
0.096067
0.0968262
0.0975554
0.0982692
0.098972
0.0996592
0.100318
0.10093
0.101471
0.101917
0.102243
0.102428
0.102461
0.102335
0.102058
0.101642
0.10111
0.100489
0.099807
0.0990873
0.0983549
0.0976327
0.0969387
0.0962862
0.0956834
0.0951344
0.09464
0.0941986
0.0938071
0.0934614
0.0931571
0.09289
0.092656
0.0924513
0.0317191
0.0589741
0.0718586
0.079354
0.0841721
0.0874384
0.0897412
0.0914243
0.0927012
0.09371
0.0945421
0.0952589
0.0959017
0.0964974
0.0970617
0.0976018
0.0981171
0.098601
0.0990418
0.0994249
0.0997342
0.0999544
0.100073
0.100081
0.099978
0.0997663
0.0994563
0.0990628
0.0986036
0.0980983
0.0975657
0.0970196
0.0964761
0.0959482
0.095446
0.0949761
0.0945425
0.0941468
0.0937887
0.0934668
0.093179
0.0929225
0.0926949
0.0924936
0.0923161
0.0313574
0.0586322
0.0714687
0.0789331
0.0837309
0.0869804
0.0892642
0.0909215
0.0921626
0.0931236
0.0938949
0.0945376
0.0950931
0.0955889
0.0960423
0.0964625
0.0968524
0.0972097
0.0975284
0.0978
0.0980146
0.0981629
0.0982374
0.0982332
0.0981494
0.0979887
0.0977579
0.097467
0.0971278
0.0967535
0.0963573
0.0959496
0.09554
0.0951379
0.0947509
0.0943843
0.0940415
0.0937245
0.0934338
0.0931692
0.0929295
0.0927135
0.0925197
0.0923467
0.0921931
0.0310115
0.0583053
0.0710963
0.0785299
0.0833065
0.0865397
0.0888072
0.0904444
0.0916588
0.0925848
0.0933117
0.0939002
0.094392
0.0948152
0.0951883
0.0955225
0.0958233
0.0960917
0.0963255
0.0965203
0.0966708
0.0967717
0.0968184
0.0968085
0.0967416
0.0966198
0.0964476
0.0962317
0.09598
0.0957014
0.0954047
0.0950983
0.0947879
0.0944801
0.0941804
0.093893
0.0936209
0.093366
0.0931293
0.0929112
0.0927112
0.092529
0.0923639
0.0922152
0.0920822
0.0306791
0.0579935
0.0707439
0.0781491
0.082906
0.0861243
0.0883784
0.0900002
0.0911952
0.0920959
0.092791
0.0933409
0.0937872
0.0941589
0.0944755
0.0947495
0.0949884
0.0951956
0.0953715
0.0955148
0.095623
0.0956933
0.0957235
0.0957122
0.0956595
0.0955671
0.095438
0.0952767
0.0950886
0.0948795
0.0946555
0.0944224
0.0941852
0.0939476
0.0937137
0.0934868
0.0932694
0.0930633
0.0928696
0.0926889
0.0925215
0.0923673
0.0922263
0.0920983
0.0919829
0.0303579
0.0576964
0.0704131
0.0777936
0.0825332
0.0857389
0.087982
0.0895923
0.0907731
0.0916561
0.0923289
0.0928518
0.0932667
0.0936028
0.0938803
0.0941132
0.09431
0.094476
0.0946134
0.0947228
0.0948037
0.0948551
0.0948759
0.0948658
0.0948251
0.094755
0.0946577
0.0945362
0.0943942
0.0942356
0.0940647
0.0938855
0.0937019
0.0935165
0.0933321
0.0931514
0.0929762
0.0928083
0.0926487
0.0924982
0.0923574
0.0922264
0.0921055
0.091995
0.0918947
0.0300501
0.0574149
0.0701036
0.0774635
0.0821885
0.0853838
0.0876183
0.0892201
0.0903912
0.0912621
0.09192
0.092425
0.0928188
0.093131
0.0933825
0.0935879
0.0937569
0.0938957
0.094008
0.0940957
0.0941595
0.0941996
0.0942158
0.0942082
0.0941774
0.0941244
0.0940506
0.0939583
0.09385
0.0937284
0.0935964
0.093457
0.0933129
0.0931666
0.0930197
0.0928742
0.0927318
0.0925938
0.0924613
0.0923351
0.0922159
0.092104
0.092
0.0919041
0.0918167
0.029761
0.0571512
0.0698155
0.0771578
0.0818706
0.0850574
0.0872856
0.0888818
0.0900468
0.0909104
0.0915593
0.092053
0.0924335
0.0927306
0.0929654
0.093153
0.093304
0.0934254
0.0935218
0.0935959
0.0936494
0.0936831
0.0936975
0.0936931
0.0936705
0.0936306
0.0935745
0.0935039
0.0934204
0.093326
0.0932229
0.0931131
0.0929987
0.0928816
0.0927632
0.0926448
0.0925279
0.0924134
0.0923025
0.0921959
0.0920942
0.0919981
0.091908
0.0918245
0.0917479
0.0294953
0.0569076
0.0695496
0.0768762
0.0815785
0.0847586
0.0869827
0.088576
0.0897382
0.0905984
0.0912426
0.0917303
0.0921032
0.0923912
0.0926158
0.0927925
0.0929323
0.0930428
0.0931293
0.0931952
0.0932427
0.0932731
0.0932874
0.0932864
0.0932706
0.0932409
0.0931983
0.0931438
0.0930789
0.0930049
0.0929234
0.0928359
0.0927439
0.092649
0.0925523
0.0924549
0.0923578
0.092262
0.0921683
0.0920774
0.0919901
0.0919069
0.0918284
0.0917552
0.0916877
0.0292525
0.0566853
0.0693068
0.0766192
0.0813126
0.0844879
0.0867099
0.0883025
0.0894646
0.0903243
0.0909673
0.0914526
0.091822
0.0921052
0.0923241
0.0924944
0.0926275
0.0927315
0.092812
0.0928731
0.0929173
0.0929464
0.0929615
0.0929637
0.0929536
0.0929319
0.0928996
0.0928575
0.0928065
0.0927479
0.0926826
0.092612
0.0925372
0.0924592
0.0923792
0.0922981
0.0922165
0.0921354
0.0920553
0.0919772
0.0919015
0.0918288
0.0917599
0.0916952
0.0916353
0.0290294
0.0564837
0.0690875
0.0763878
0.0810741
0.0842464
0.0864682
0.0880623
0.0892263
0.0900878
0.090732
0.0912175
0.0915859
0.0918673
0.0920834
0.0922503
0.0923796
0.0924798
0.0925571
0.0926155
0.0926581
0.0926869
0.0927033
0.0927084
0.0927029
0.0926876
0.0926632
0.0926305
0.0925901
0.0925431
0.0924902
0.0924324
0.0923706
0.0923057
0.0922385
0.0921698
0.0921004
0.0920307
0.0919615
0.0918934
0.091827
0.0917629
0.0917016
0.0916439
0.0915903
0.0288241
0.0563027
0.0688923
0.0761835
0.0808654
0.0840371
0.0862608
0.087858
0.0890256
0.0898905
0.0905373
0.0910246
0.0913938
0.0916751
0.0918903
0.0920556
0.0921831
0.0922813
0.0923568
0.0924138
0.0924558
0.0924849
0.0925026
0.0925102
0.0925084
0.092498
0.0924797
0.092454
0.0924217
0.0923833
0.0923397
0.0922915
0.0922395
0.0921844
0.092127
0.0920677
0.0920074
0.0919465
0.0918856
0.0918252
0.091766
0.0917085
0.0916533
0.0916011
0.0915523
0.0286378
0.0561443
0.0687245
0.0760109
0.0806921
0.0838661
0.0860937
0.0876955
0.0888679
0.089737
0.0903874
0.0908773
0.0912483
0.0915304
0.0917456
0.0919105
0.092037
0.0921342
0.0922087
0.092265
0.0923067
0.0923361
0.092355
0.0923645
0.0923655
0.0923588
0.0923449
0.0923244
0.0922979
0.0922659
0.092229
0.0921878
0.0921429
0.0920948
0.0920443
0.0919918
0.0919379
0.0918832
0.0918281
0.0917731
0.0917189
0.091666
0.0916151
0.0915667
0.0915214
0.028473
0.0560146
0.0685929
0.0758813
0.0805666
0.083746
0.0859794
0.0875869
0.0887645
0.089638
0.0902918
0.0907843
0.091157
0.09144
0.0916555
0.09182
0.0919459
0.0920422
0.0921158
0.0921715
0.0922128
0.0922423
0.0922618
0.0922724
0.0922753
0.092271
0.0922601
0.0922431
0.0922205
0.0921928
0.0921604
0.0921238
0.0920834
0.0920399
0.0919936
0.0919451
0.0918949
0.0918435
0.0917915
0.0917393
0.0916876
0.091637
0.0915881
0.0915416
0.0914982
0.028332
0.0559279
0.0685186
0.0758185
0.0805138
0.0837012
0.0859412
0.0875541
0.0887356
0.0896122
0.090268
0.0907617
0.0911348
0.0914176
0.0916323
0.0917958
0.0919204
0.0920154
0.0920877
0.0921422
0.0921826
0.0922116
0.0922309
0.0922419
0.0922454
0.0922423
0.092233
0.092218
0.0921976
0.0921722
0.0921422
0.0921079
0.0920697
0.0920279
0.091983
0.0919354
0.0918855
0.0918341
0.0917816
0.0917286
0.091676
0.0916244
0.0915746
0.0915275
0.0914836
0.0282243
0.0559196
0.0685478
0.0758715
0.080581
0.0837763
0.0860202
0.0876343
0.0888155
0.0896905
0.0903442
0.0908353
0.0912056
0.0914854
0.0916972
0.0918578
0.0919796
0.0920719
0.0921417
0.0921941
0.0922327
0.0922601
0.0922783
0.0922885
0.0922917
0.0922886
0.0922795
0.092265
0.0922452
0.0922203
0.0921907
0.0921564
0.0921176
0.0920745
0.0920275
0.0919768
0.091923
0.0918666
0.0918085
0.0917496
0.0916909
0.0916335
0.0915786
0.091527
0.0914795
0.028186
0.0560764
0.0687798
0.0761367
0.0808564
0.0840495
0.0862849
0.0878878
0.0890569
0.0899201
0.0905627
0.0910437
0.0914049
0.0916767
0.0918814
0.0920358
0.0921521
0.0922397
0.0923053
0.092354
0.0923895
0.0924142
0.0924302
0.0924385
0.0924402
0.0924359
0.0924258
0.0924103
0.0923895
0.0923635
0.0923323
0.0922956
0.0922535
0.0922058
0.0921524
0.0920935
0.0920295
0.0919611
0.0918895
0.0918164
0.0917435
0.0916727
0.0916056
0.0915437
0.0914879
0.0283217
0.0565983
0.0694194
0.0767965
0.0814944
0.0846493
0.0868423
0.0884042
0.0895363
0.090367
0.0909819
0.0914396
0.0917813
0.0920369
0.0922283
0.0923715
0.0924786
0.0925585
0.0926177
0.0926609
0.0926917
0.0927125
0.092725
0.0927304
0.0927295
0.0927229
0.0927107
0.0926932
0.0926702
0.0926417
0.0926071
0.092566
0.0925178
0.0924617
0.092397
0.0923232
0.0922403
0.0921492
0.0920518
0.091951
0.0918503
0.0917535
0.0916634
0.0915824
0.0915113
0.0289248
0.0579191
0.0708589
0.0781668
0.0827403
0.0857653
0.0878406
0.0893022
0.0903513
0.0911145
0.091675
0.092089
0.0923961
0.0926241
0.0927936
0.0929194
0.0930126
0.0930812
0.0931313
0.0931671
0.0931917
0.0932072
0.0932153
0.0932169
0.0932127
0.0932031
0.0931882
0.0931681
0.0931423
0.0931105
0.0930718
0.0930252
0.092969
0.0929014
0.0928203
0.0927238
0.0926105
0.0924808
0.0923373
0.0921858
0.0920345
0.0918909
0.0917609
0.0916474
0.0915514
0.0308249
0.0609118
0.0737667
0.0807177
0.0849195
0.0876264
0.0894471
0.09071
0.0916056
0.0922508
0.0927205
0.0930649
0.0933185
0.0935055
0.0936434
0.0937449
0.0938193
0.0938733
0.0939119
0.0939385
0.0939557
0.0939653
0.0939684
0.0939659
0.0939582
0.0939457
0.0939283
0.0939058
0.0938778
0.0938435
0.0938016
0.0937502
0.0936866
0.0936072
0.0935073
0.0933814
0.0932245
0.0930336
0.0928109
0.0925679
0.0923255
0.0921009
0.0919047
0.0917405
0.0916072
0.0360188
0.0671051
0.079055
0.0849602
0.0883206
0.0904064
0.091778
0.0927159
0.0933748
0.0938461
0.0941872
0.094436
0.0946182
0.0947518
0.0948498
0.0949213
0.0949731
0.0950101
0.0950357
0.0950524
0.095062
0.0950658
0.0950644
0.0950585
0.0950484
0.0950341
0.0950157
0.0949928
0.0949649
0.094931
0.0948896
0.0948381
0.0947727
0.0946876
0.0945742
0.0944209
0.0942126
0.0939339
0.0935773
0.0931608
0.0927522
0.0923911
0.0920924
0.0918552
0.091672
0.049112
0.0785969
0.0873638
0.0909895
0.0928882
0.0940342
0.0947848
0.0953
0.0956639
0.0959252
0.0961149
0.0962535
0.096355
0.0964294
0.0964839
0.0965234
0.0965518
0.0965715
0.0965847
0.0965925
0.0965958
0.0965954
0.0965916
0.0965847
0.0965748
0.0965619
0.096546
0.0965268
0.0965039
0.0964764
0.0964429
0.0964011
0.0963469
0.0962735
0.0961693
0.0960148
0.0957772
0.0954056
0.094834
0.0940345
0.0933136
0.0927362
0.0922964
0.09197
0.0917311
0.0862971
0.0961662
0.0971847
0.0975711
0.0978281
0.098026
0.0981796
0.098297
0.0983857
0.0984522
0.0985021
0.0985394
0.0985673
0.0985882
0.0986038
0.0986154
0.0986239
0.09863
0.098634
0.0986363
0.0986371
0.0986365
0.0986347
0.0986316
0.0986272
0.0986216
0.0986148
0.0986065
0.0985967
0.0985851
0.0985711
0.0985537
0.098531
0.0984993
0.0984509
0.098369
0.0982136
0.097884
0.0971121
0.0951377
0.0938715
0.0930251
0.0924464
0.0920452
0.0917648
)
;

boundaryField
{
    leftWall
    {
        type            kqRWallFunction;
        value           nonuniform List<scalar> 
42
(
0.0307988
0.0312131
0.0318703
0.0334879
0.0346685
0.0349711
0.0349506
0.0349473
0.0352698
0.0357403
0.0358711
0.0356507
0.035251
0.0347716
0.0342777
0.0337978
0.0333401
0.0329052
0.0324918
0.0320971
0.0317191
0.0313574
0.0310115
0.0306791
0.0303579
0.0300501
0.029761
0.0294953
0.0292525
0.0290294
0.0288241
0.0286378
0.028473
0.028332
0.0282243
0.028186
0.0283217
0.0289248
0.0308249
0.0360188
0.049112
0.0862971
)
;
    }
    rightWall
    {
        type            kqRWallFunction;
        value           nonuniform 0();
    }
    lowerWall
    {
        type            kqRWallFunction;
        value           nonuniform 0();
    }
    atmosphere
    {
        type            inletOutlet;
        inletValue      uniform 0.1;
        value           nonuniform List<scalar> 
45
(
0.1
0.1
0.1
0.1
0.1
0.1
0.1
0.1
0.1
0.1
0.1
0.1
0.1
0.1
0.1
0.1
0.1
0.1
0.1
0.1
0.1
0.1
0.1
0.1
0.1
0.1
0.1
0.1
0.1
0.1
0.1
0.1
0.1
0.1
0.1
0.1
0.1
0.1
0.1
0.0951377
0.0938715
0.0930251
0.0924464
0.0920452
0.0917648
)
;
    }
    defaultFaces
    {
        type            empty;
    }
    procBoundary2to0
    {
        type            processor;
        value           nonuniform List<scalar> 
46
(
0.129664
0.14246
0.159174
0.180745
0.208114
0.233407
0.232197
0.212233
0.186683
0.162728
0.143292
0.128772
0.118431
0.111242
0.106282
0.102849
0.100447
0.098739
0.0975001
0.0965802
0.0958791
0.0953291
0.0948831
0.0945072
0.0941763
0.0304531
0.0569317
0.0697456
0.0770948
0.0816849
0.0847064
0.0868092
0.0883826
0.0896699
0.09083
0.0919744
0.0931931
0.0945737
0.0962159
0.0982443
0.10082
0.104153
0.108514
0.114254
0.121825
0.121825
)
;
    }
    procBoundary2to3
    {
        type            processor;
        value           nonuniform List<scalar> 
43
(
0.0938713
0.0938749
0.0938786
0.0938793
0.0938744
0.0938609
0.0938359
0.093797
0.0937422
0.0936705
0.0935817
0.093477
0.0933582
0.093228
0.0930898
0.092947
0.0928032
0.0926615
0.0925246
0.0923945
0.0922728
0.0921602
0.0920572
0.0919639
0.0918799
0.0918047
0.0917378
0.0916785
0.0916263
0.0915806
0.0915411
0.0915074
0.0914797
0.0914582
0.0914435
0.0914365
0.0914385
0.0914503
0.0914721
0.0915015
0.0915331
0.0915579
0.0915681
)
;
    }
}


// ************************************************************************* //
