/*--------------------------------*- C++ -*----------------------------------*\
| =========                 |                                                 |
| \\      /  F ield         | OpenFOAM: The Open Source CFD Toolbox           |
|  \\    /   O peration     | Version:  5.0                                   |
|   \\  /    A nd           | Web:      www.OpenFOAM.org                      |
|    \\/     M anipulation  |                                                 |
\*---------------------------------------------------------------------------*/
FoamFile
{
    version     2.0;
    format      ascii;
    class       volScalarField;
    location    "0.1";
    object      p;
}
// * * * * * * * * * * * * * * * * * * * * * * * * * * * * * * * * * * * * * //

dimensions      [1 -1 -2 0 0 0 0];

internalField   nonuniform List<scalar> 
1915
(
18.6869
14.0738
7.33003
-0.322491
-2.03961
-2.15514
-2.14719
-2.13171
-2.11555
-2.09486
-2.07138
-2.04713
-2.02326
-2.00042
-1.97899
-1.95914
-1.94096
-1.92447
-1.90964
-1.89638
-1.88457
-1.87408
-1.86482
-1.85654
-1.84906
26.6243
29.1627
29.5106
31.1317
32.6439
33.8858
34.7718
35.2411
35.272
34.8723
34.0822
32.9459
31.4776
29.6741
27.5534
25.1609
22.544
19.7498
16.8342
13.8664
11.0564
8.51412
4.35339
-0.995119
-2.15877
-2.26689
-2.27359
-2.2646
-2.24829
-2.22542
-2.19903
-2.1716
-2.14462
-2.1189
-2.09487
-2.07269
-2.05238
-2.03394
-2.01731
-2.00237
-1.98899
-1.97704
-1.96645
-1.95705
-1.94838
9.2286
13.7624
11.4889
11.7
12.4085
13.2471
14.0444
14.6649
15.0151
15.0986
14.9478
14.5841
14.0069
13.208
12.2005
11.0278
9.74447
8.39207
7.00662
5.68509
4.68237
4.20056
2.33014
-1.71767
-2.28197
-2.39731
-2.41663
-2.40885
-2.38774
-2.35961
-2.32829
-2.29651
-2.26576
-2.23685
-2.21009
-2.18553
-2.16313
-2.1428
-2.12442
-2.10786
-2.09295
-2.07959
-2.06766
-2.05703
-2.04737
1.52818
6.70852
4.73417
3.59473
2.02659
0.777686
0.144255
0.0406562
0.232388
0.546079
0.897019
1.24376
1.55461
1.80287
1.98143
2.11243
2.23191
2.37279
2.55186
2.79742
3.41829
4.85965
3.63388
-2.46094
-2.4606
-2.55254
-2.57879
-2.56575
-2.5346
-2.49726
-2.45876
-2.42138
-2.38624
-2.35384
-2.32425
-2.29732
-2.27288
-2.25074
-2.23071
-2.21261
-2.1963
-2.18164
-2.16851
-2.15674
-2.14609
-3.93746
-3.09161
-2.40215
-0.551042
0.810076
1.02806
0.744236
0.392311
0.198355
0.249934
0.531866
0.988031
1.54951
2.15051
2.74195
3.29893
3.8145
4.29306
4.72673
5.09329
5.51529
6.48891
5.49896
-2.80732
-2.90436
-2.7681
-2.76337
-2.73447
-2.68674
-2.63633
-2.58877
-2.54495
-2.50511
-2.46916
-2.43679
-2.40762
-2.38128
-2.35747
-2.33592
-2.31644
-2.29886
-2.28306
-2.26889
-2.25615
-2.2446
-3.85449
-3.75827
-3.86738
-3.99331
-4.09712
-4.10517
-4.01811
-3.90993
-3.78379
-3.64775
-3.519
-3.41119
-3.33433
-3.29256
-3.28595
-3.3091
-3.35493
-3.41647
-3.49027
-3.56589
-3.60302
-3.5454
-2.78016
-3.25277
-3.37335
-3.03665
-2.96545
-2.9055
-2.83655
-2.77221
-2.71532
-2.66523
-2.62102
-2.58188
-2.54707
-2.51595
-2.48797
-2.46269
-2.43983
-2.41915
-2.4005
-2.38373
-2.36867
-2.35511
-2.34278
-3.87893
-3.87133
-3.90688
-3.93459
-3.95597
-3.95981
-3.99035
-4.06468
-4.12054
-4.13659
-4.12935
-4.11198
-4.09007
-4.06599
-4.04076
-4.01469
-3.98797
-3.96179
-3.93921
-3.92456
-3.91796
-3.91542
-3.82373
-3.63869
-3.5091
-3.29233
-3.16143
-3.06054
-2.97338
-2.89847
-2.83469
-2.77995
-2.73252
-2.69105
-2.65446
-2.62186
-2.59259
-2.56616
-2.54224
-2.52061
-2.5011
-2.48355
-2.46777
-2.45352
-2.44051
-3.9124
-3.90981
-3.9258
-3.9466
-3.96833
-3.98192
-3.98769
-3.99979
-4.01076
-4.01485
-4.01319
-4.00755
-3.99921
-3.98912
-3.97799
-3.96614
-3.95381
-3.94148
-3.92944
-3.91728
-3.90349
-3.88692
-3.84789
-3.75743
-3.5882
-3.41665
-3.28588
-3.17873
-3.08756
-3.00993
-2.9439
-2.88739
-2.83859
-2.79602
-2.75847
-2.725
-2.6949
-2.66769
-2.64303
-2.62072
-2.60059
-2.58245
-2.5661
-2.5513
-2.53774
-3.94581
-3.94424
-3.94962
-3.96058
-3.97696
-3.99243
-4.00495
-4.01636
-4.02527
-4.02963
-4.02872
-4.02308
-4.01381
-4.00203
-3.98857
-3.97378
-3.9578
-3.94096
-3.92331
-3.90294
-3.87643
-3.84031
-3.78919
-3.71136
-3.59449
-3.47216
-3.36335
-3.26655
-3.18128
-3.10703
-3.04284
-2.98729
-2.93896
-2.89654
-2.85891
-2.8252
-2.79477
-2.76717
-2.74212
-2.71942
-2.69889
-2.68035
-2.6636
-2.64838
-2.63438
-3.97528
-3.97701
-3.97926
-3.98348
-3.99129
-4.00056
-4.00946
-4.01768
-4.02402
-4.02666
-4.02466
-4.01817
-4.00805
-3.99528
-3.98048
-3.96379
-3.94519
-3.92482
-3.90287
-3.87831
-3.84801
-3.80888
-3.75734
-3.68942
-3.604
-3.51152
-3.42172
-3.33779
-3.26146
-3.19341
-3.13339
-3.08062
-3.03411
-2.99283
-2.95587
-2.92251
-2.89221
-2.86462
-2.83951
-2.81668
-2.79598
-2.77722
-2.76022
-2.74472
-2.7304
-4.00102
-4.00557
-4.00909
-4.01207
-4.01591
-4.02035
-4.0247
-4.02859
-4.031
-4.03064
-4.02671
-4.01921
-4.00872
-3.99584
-3.9808
-3.96356
-3.94393
-3.92186
-3.8974
-3.87006
-3.83812
-3.79911
-3.75097
-3.6921
-3.62283
-3.54795
-3.47285
-3.40074
-3.33365
-3.27261
-3.21776
-3.16873
-3.12485
-3.08539
-3.04966
-3.01712
-2.98737
-2.96014
-2.93524
-2.91252
-2.89183
-2.87302
-2.85592
-2.84027
-2.82575
-4.02482
-4.0308
-4.03624
-4.0402
-4.0435
-4.04642
-4.04884
-4.05037
-4.05023
-4.04758
-4.04203
-4.03374
-4.02305
-4.01015
-3.99493
-3.97717
-3.95673
-3.93357
-3.9076
-3.87844
-3.84513
-3.80629
-3.76081
-3.70811
-3.64888
-3.58583
-3.52213
-3.46012
-3.40154
-3.34736
-3.29788
-3.25292
-3.21207
-3.17482
-3.14071
-3.10934
-3.08046
-3.05385
-3.02939
-3.00696
-2.98646
-2.96776
-2.9507
-2.93503
-2.92041
-4.04898
-4.05513
-4.06151
-4.06634
-4.07001
-4.07284
-4.07468
-4.07503
-4.07328
-4.06906
-4.06243
-4.05362
-4.04276
-4.02967
-4.01411
-3.99581
-3.9747
-3.95086
-3.92429
-3.8947
-3.8614
-3.82365
-3.78094
-3.73328
-3.68141
-3.6271
-3.57231
-3.5187
-3.46756
-3.41965
-3.37527
-3.33434
-3.29662
-3.26177
-3.22949
-3.19952
-3.1717
-3.14589
-3.12204
-3.10007
-3.07992
-3.06147
-3.04458
-3.02899
-3.01438
-4.07486
-4.08071
-4.08707
-4.09218
-4.09608
-4.09889
-4.10027
-4.0997
-4.09682
-4.09167
-4.08447
-4.07538
-4.06427
-4.05084
-4.03486
-4.01623
-3.99496
-3.97116
-3.94487
-3.91591
-3.88381
-3.84809
-3.80857
-3.76548
-3.71961
-3.6722
-3.6246
-3.57796
-3.53317
-3.4908
-3.45106
-3.41393
-3.37925
-3.34681
-3.31643
-3.28795
-3.2613
-3.23642
-3.21331
-3.19194
-3.17228
-3.15421
-3.1376
-3.1222
-3.10767
-4.10293
-4.10844
-4.11443
-4.11945
-4.12324
-4.1257
-4.12643
-4.1251
-4.12164
-4.11622
-4.10895
-4.09972
-4.08829
-4.07441
-4.05804
-4.03934
-4.01841
-3.99529
-3.96997
-3.94229
-3.91195
-3.87864
-3.84238
-3.8035
-3.76274
-3.72105
-3.6794
-3.6386
-3.59923
-3.56166
-3.52605
-3.49237
-3.46053
-3.43039
-3.40186
-3.37489
-3.34945
-3.32559
-3.30334
-3.28269
-3.26363
-3.24606
-3.22982
-3.21468
-3.20031
-4.13369
-4.13877
-4.14438
-4.14905
-4.15238
-4.15419
-4.15425
-4.15248
-4.14897
-4.14371
-4.13656
-4.12723
-4.11549
-4.10127
-4.08477
-4.06632
-4.04609
-4.02407
-4.0001
-3.97401
-3.94559
-3.91473
-3.88157
-3.84651
-3.8102
-3.77337
-3.73676
-3.70089
-3.66614
-3.63274
-3.60074
-3.57014
-3.54085
-3.51283
-3.48605
-3.46053
-3.43635
-3.41358
-3.39227
-3.37246
-3.35411
-3.33711
-3.32131
-3.30649
-3.29233
-4.16723
-4.17187
-4.17712
-4.18133
-4.18406
-4.18524
-4.18487
-4.18303
-4.17966
-4.17452
-4.1673
-4.15774
-4.14578
-4.13155
-4.11536
-4.09758
-4.07838
-4.05765
-4.03518
-4.01075
-3.98426
-3.95576
-3.92548
-3.89387
-3.86147
-3.82886
-3.79656
-3.76491
-3.73413
-3.70429
-3.67542
-3.64748
-3.62045
-3.59433
-3.56918
-3.5451
-3.52219
-3.50057
-3.4803
-3.46141
-3.44383
-3.42745
-3.41214
-3.39768
-3.38377
-4.20323
-4.20756
-4.2124
-4.21615
-4.21842
-4.21928
-4.21887
-4.21713
-4.2138
-4.20846
-4.20084
-4.19095
-4.17896
-4.16513
-4.14976
-4.13308
-4.11515
-4.0958
-4.07481
-4.052
-4.02737
-4.00109
-3.9735
-3.94501
-3.9161
-3.8872
-3.85864
-3.83061
-3.8032
-3.77639
-3.75017
-3.72452
-3.69947
-3.67508
-3.65147
-3.62879
-3.60719
-3.58678
-3.5676
-3.54966
-3.53289
-3.51717
-3.50237
-3.4883
-3.47467
-4.24154
-4.24561
-4.25
-4.25333
-4.25536
-4.25621
-4.2559
-4.25419
-4.25064
-4.24488
-4.23687
-4.22684
-4.21519
-4.2022
-4.18804
-4.17271
-4.15613
-4.13811
-4.11847
-4.09715
-4.07428
-4.05012
-4.02504
-3.99945
-3.9737
-3.94809
-3.92278
-3.89785
-3.87327
-3.84901
-3.82502
-3.80133
-3.77803
-3.75523
-3.73312
-3.71185
-3.69158
-3.67239
-3.65433
-3.63736
-3.62139
-3.60634
-3.59206
-3.5784
-3.5651
-4.28233
-4.2861
-4.29009
-4.29315
-4.2951
-4.29597
-4.2956
-4.29361
-4.28965
-4.28356
-4.27549
-4.26582
-4.25495
-4.2431
-4.23025
-4.21623
-4.20086
-4.18398
-4.16553
-4.1456
-4.12442
-4.10233
-4.07968
-4.05681
-4.03394
-4.01124
-3.98873
-3.9664
-3.94418
-3.92203
-3.89994
-3.87798
-3.85628
-3.83502
-3.81437
-3.79451
-3.77556
-3.75759
-3.74061
-3.72458
-3.70941
-3.695
-3.68127
-3.66805
-3.65512
-4.32564
-4.32913
-4.33294
-4.33592
-4.33783
-4.33854
-4.33778
-4.33528
-4.33093
-4.32479
-4.31713
-4.30827
-4.29847
-4.28779
-4.27607
-4.26309
-4.24867
-4.23276
-4.21542
-4.19687
-4.17743
-4.15741
-4.13712
-4.11678
-4.09651
-4.07632
-4.05618
-4.03601
-4.01575
-3.9954
-3.97498
-3.9546
-3.93443
-3.91466
-3.89545
-3.87697
-3.8593
-3.8425
-3.82655
-3.8114
-3.79699
-3.78323
-3.77004
-3.7573
-3.74477
-4.37122
-4.37455
-4.37827
-4.3812
-4.38297
-4.38334
-4.3821
-4.37918
-4.3747
-4.3689
-4.362
-4.35417
-4.34546
-4.33575
-4.32488
-4.31267
-4.29902
-4.284
-4.26782
-4.25075
-4.2331
-4.21515
-4.1971
-4.17906
-4.16105
-4.143
-4.12483
-4.10648
-4.0879
-4.06913
-4.05024
-4.03136
-4.01267
-3.99435
-3.97654
-3.95937
-3.94291
-3.92719
-3.9122
-3.89789
-3.8842
-3.87109
-3.85846
-3.84621
-3.83411
-4.41878
-4.42198
-4.42551
-4.4282
-4.42965
-4.42967
-4.42818
-4.42526
-4.42113
-4.41602
-4.41004
-4.4032
-4.39536
-4.38638
-4.37612
-4.3645
-4.35158
-4.33752
-4.3226
-4.30709
-4.29126
-4.2753
-4.25931
-4.2433
-4.22721
-4.21097
-4.19448
-4.1777
-4.16062
-4.1433
-4.12586
-4.10843
-4.09116
-4.07422
-4.05773
-4.04179
-4.02644
-4.01173
-3.99762
-3.98411
-3.97113
-3.95864
-3.94658
-3.93484
-3.92318
-4.46827
-4.47124
-4.47438
-4.47664
-4.47774
-4.47762
-4.47629
-4.47384
-4.47043
-4.46616
-4.46102
-4.45491
-4.44767
-4.43917
-4.42936
-4.41831
-4.40618
-4.39321
-4.37965
-4.36576
-4.3517
-4.33759
-4.32343
-4.30918
-4.29476
-4.28006
-4.26504
-4.24967
-4.23397
-4.21803
-4.20196
-4.1859
-4.16998
-4.15433
-4.13907
-4.12426
-4.10995
-4.09617
-4.0829
-4.07014
-4.05785
-4.04598
-4.03448
-4.02324
-4.01201
-4.51967
-4.52232
-4.52505
-4.52695
-4.52789
-4.52793
-4.52706
-4.52529
-4.52262
-4.51903
-4.51444
-4.50874
-4.50181
-4.49364
-4.48428
-4.4739
-4.46271
-4.45095
-4.43885
-4.42657
-4.41421
-4.40178
-4.38925
-4.37653
-4.36355
-4.35022
-4.3365
-4.32241
-4.308
-4.29334
-4.27856
-4.26378
-4.24912
-4.23468
-4.22055
-4.2068
-4.19347
-4.18058
-4.16813
-4.1561
-4.14447
-4.13319
-4.12222
-4.11145
-4.10064
-4.57291
-4.57528
-4.57776
-4.57957
-4.58064
-4.58102
-4.58063
-4.57937
-4.57716
-4.57389
-4.56952
-4.56397
-4.55726
-4.54945
-4.54068
-4.53117
-4.52112
-4.51072
-4.50013
-4.48944
-4.47865
-4.46775
-4.45664
-4.44526
-4.43352
-4.42138
-4.40883
-4.3959
-4.38266
-4.36919
-4.3556
-4.34201
-4.32853
-4.31523
-4.30219
-4.28946
-4.27708
-4.26506
-4.2534
-4.24208
-4.23107
-4.22035
-4.20986
-4.19951
-4.18906
-4.62788
-4.6301
-4.63254
-4.63448
-4.63581
-4.63646
-4.6363
-4.63521
-4.63308
-4.62987
-4.62555
-4.62018
-4.61381
-4.6066
-4.5987
-4.5903
-4.58157
-4.57263
-4.56355
-4.55434
-4.54497
-4.53537
-4.52548
-4.51521
-4.50452
-4.49341
-4.48188
-4.46998
-4.45781
-4.44544
-4.43299
-4.42054
-4.40818
-4.39599
-4.38402
-4.3723
-4.36086
-4.34969
-4.33879
-4.32814
-4.31771
-4.30748
-4.29741
-4.28743
-4.27731
-4.68459
-4.68675
-4.68922
-4.69128
-4.69272
-4.69339
-4.69318
-4.69199
-4.6898
-4.68662
-4.68251
-4.67754
-4.67184
-4.66553
-4.65877
-4.65167
-4.64433
-4.6368
-4.62908
-4.62115
-4.61295
-4.6044
-4.59546
-4.58609
-4.57627
-4.56603
-4.5554
-4.54446
-4.5333
-4.522
-4.51065
-4.49932
-4.4881
-4.47702
-4.46611
-4.45539
-4.44486
-4.43452
-4.42434
-4.41431
-4.4044
-4.3946
-4.38489
-4.37521
-4.3654
-4.74302
-4.74514
-4.74755
-4.74954
-4.75083
-4.75131
-4.7509
-4.74962
-4.7475
-4.74459
-4.74098
-4.73674
-4.73198
-4.72679
-4.72125
-4.71543
-4.70935
-4.70302
-4.6964
-4.68945
-4.68212
-4.67436
-4.66615
-4.6575
-4.64842
-4.63896
-4.6292
-4.6192
-4.60905
-4.59882
-4.5886
-4.57842
-4.56833
-4.55835
-4.54849
-4.53874
-4.52909
-4.51952
-4.51
-4.50052
-4.49107
-4.48165
-4.47225
-4.46286
-4.45334
-4.803
-4.805
-4.80722
-4.80896
-4.80997
-4.81022
-4.80974
-4.80858
-4.8068
-4.80446
-4.8016
-4.79828
-4.79454
-4.79044
-4.786
-4.78123
-4.77612
-4.77067
-4.76482
-4.75855
-4.75183
-4.74467
-4.73707
-4.72906
-4.7207
-4.71205
-4.70318
-4.69417
-4.68509
-4.67599
-4.66691
-4.65789
-4.64892
-4.64002
-4.63116
-4.62231
-4.61347
-4.60459
-4.59566
-4.58668
-4.57764
-4.56856
-4.55947
-4.55037
-4.54118
-4.8642
-4.866
-4.86794
-4.86938
-4.87016
-4.87037
-4.87006
-4.86929
-4.86808
-4.86645
-4.86441
-4.86196
-4.85911
-4.85587
-4.85223
-4.84819
-4.84374
-4.83885
-4.83353
-4.82776
-4.82155
-4.81493
-4.80795
-4.80064
-4.79308
-4.78533
-4.77745
-4.76951
-4.76155
-4.7536
-4.74567
-4.73777
-4.72987
-4.72195
-4.71399
-4.70595
-4.69781
-4.68954
-4.68114
-4.67261
-4.66397
-4.65526
-4.64651
-4.63776
-4.62894
-4.92635
-4.92791
-4.92957
-4.93079
-4.93154
-4.93192
-4.93198
-4.93173
-4.93113
-4.93016
-4.92879
-4.92699
-4.92475
-4.92207
-4.91894
-4.91536
-4.91134
-4.90688
-4.902
-4.89671
-4.89106
-4.88508
-4.87883
-4.87236
-4.86573
-4.85899
-4.8522
-4.84538
-4.83855
-4.83171
-4.82486
-4.81797
-4.81102
-4.80397
-4.79678
-4.78943
-4.7819
-4.77417
-4.76626
-4.75818
-4.74996
-4.74166
-4.73333
-4.72501
-4.71665
-4.98948
-4.99083
-4.99226
-4.99339
-4.99424
-4.99489
-4.99534
-4.99552
-4.99537
-4.99484
-4.99387
-4.99245
-4.99056
-4.98822
-4.98542
-4.9822
-4.97856
-4.97455
-4.97018
-4.9655
-4.96055
-4.95537
-4.95001
-4.94451
-4.93892
-4.93326
-4.92756
-4.92183
-4.91606
-4.91023
-4.90432
-4.89831
-4.89215
-4.88581
-4.87926
-4.87249
-4.8655
-4.85828
-4.85085
-4.84325
-4.83552
-4.82772
-4.81992
-4.81214
-4.80435
-5.05391
-5.05511
-5.0564
-5.0575
-5.05845
-5.05927
-5.05992
-5.06029
-5.06032
-5.05994
-5.05913
-5.05787
-5.05618
-5.05408
-5.05159
-5.04875
-5.0456
-5.04215
-5.03846
-5.03455
-5.03045
-5.0262
-5.02184
-5.01737
-5.01283
-5.00822
-5.00353
-4.99877
-4.99391
-4.98893
-4.9838
-4.97848
-4.97296
-4.9672
-4.96119
-4.95494
-4.94845
-4.94173
-4.93483
-4.92778
-4.92063
-4.91344
-4.90627
-4.89916
-4.89204
-5.12005
-5.12115
-5.12236
-5.1234
-5.12431
-5.12508
-5.12564
-5.12591
-5.12583
-5.12539
-5.12456
-5.12337
-5.12185
-5.12002
-5.11792
-5.11558
-5.11302
-5.11029
-5.10739
-5.10435
-5.10118
-5.0979
-5.09452
-5.09104
-5.08745
-5.08375
-5.07993
-5.07596
-5.07184
-5.06752
-5.06299
-5.05823
-5.05322
-5.04795
-5.04243
-5.03667
-5.03069
-5.02452
-5.01821
-5.01179
-5.00532
-4.99885
-4.99243
-4.98609
-4.97973
-5.18808
-5.18913
-5.19024
-5.19113
-5.19181
-5.19228
-5.1925
-5.19245
-5.1921
-5.19148
-5.19059
-5.18948
-5.18817
-5.18669
-5.18507
-5.18332
-5.18145
-5.17948
-5.1774
-5.17523
-5.17294
-5.17055
-5.16803
-5.16538
-5.16258
-5.15962
-5.15647
-5.15312
-5.14955
-5.14575
-5.14169
-5.13739
-5.13282
-5.12802
-5.12298
-5.11773
-5.11231
-5.10675
-5.1011
-5.09539
-5.08968
-5.08402
-5.07844
-5.07294
-5.0674
-5.25802
-5.25897
-5.25992
-5.26053
-5.26081
-5.26082
-5.26057
-5.2601
-5.25945
-5.25866
-5.25776
-5.25679
-5.25577
-5.2547
-5.25359
-5.25245
-5.25126
-5.25
-5.24867
-5.24724
-5.2457
-5.24402
-5.24219
-5.24018
-5.23797
-5.23556
-5.23291
-5.23003
-5.22689
-5.22351
-5.21987
-5.21598
-5.21185
-5.20752
-5.20299
-5.19831
-5.1935
-5.18861
-5.18368
-5.17875
-5.17387
-5.16906
-5.16435
-5.15973
-5.15504
-5.32961
-5.33044
-5.33114
-5.33139
-5.3312
-5.33068
-5.32996
-5.32912
-5.32824
-5.32737
-5.32655
-5.32579
-5.32509
-5.32444
-5.32382
-5.32321
-5.32258
-5.32191
-5.32116
-5.3203
-5.3193
-5.31814
-5.31679
-5.31524
-5.31346
-5.31144
-5.30918
-5.30667
-5.30391
-5.3009
-5.29766
-5.2942
-5.29055
-5.28673
-5.28276
-5.27869
-5.27454
-5.27035
-5.26618
-5.26205
-5.25801
-5.25407
-5.25025
-5.24649
-5.24265
-5.40241
-5.40327
-5.40378
-5.40367
-5.40301
-5.40203
-5.40093
-5.39984
-5.39886
-5.39803
-5.39735
-5.39683
-5.39643
-5.39613
-5.39589
-5.39567
-5.39544
-5.39515
-5.39478
-5.39428
-5.39363
-5.3928
-5.39177
-5.39053
-5.38905
-5.38734
-5.3854
-5.38322
-5.38082
-5.3782
-5.37539
-5.37241
-5.36927
-5.366
-5.36264
-5.3592
-5.35573
-5.35225
-5.34881
-5.34547
-5.34226
-5.33917
-5.33619
-5.33328
-5.33027
-5.47685
-5.47775
-5.47805
-5.47761
-5.47652
-5.47517
-5.47383
-5.47265
-5.4717
-5.47098
-5.47047
-5.47014
-5.46996
-5.46988
-5.46985
-5.46984
-5.46981
-5.46971
-5.46951
-5.46919
-5.46871
-5.46806
-5.46722
-5.46619
-5.46494
-5.4635
-5.46185
-5.46001
-5.45798
-5.45578
-5.45344
-5.45097
-5.44839
-5.44572
-5.44297
-5.44018
-5.43736
-5.43454
-5.43178
-5.42917
-5.42674
-5.42446
-5.4223
-5.42018
-5.41796
-5.55497
-5.55568
-5.55532
-5.55404
-5.5524
-5.55079
-5.54939
-5.54827
-5.54741
-5.54681
-5.5464
-5.54615
-5.54602
-5.54596
-5.54594
-5.54592
-5.54586
-5.54574
-5.54554
-5.54522
-5.54477
-5.54418
-5.54344
-5.54254
-5.54149
-5.54027
-5.53891
-5.53741
-5.53578
-5.53403
-5.53218
-5.53025
-5.52825
-5.52618
-5.52407
-5.5219
-5.51968
-5.51741
-5.51514
-5.51315
-5.51153
-5.51007
-5.50869
-5.50733
-5.50587
-5.63302
-5.64223
-5.63933
-5.63443
-5.63163
-5.62996
-5.62869
-5.62769
-5.62691
-5.6263
-5.62582
-5.62544
-5.62513
-5.62486
-5.62461
-5.62435
-5.62406
-5.62373
-5.62334
-5.62288
-5.62233
-5.62168
-5.62095
-5.62012
-5.61919
-5.61818
-5.61708
-5.6159
-5.61465
-5.61334
-5.61198
-5.61058
-5.60915
-5.60767
-5.60616
-5.60459
-5.60288
-5.60083
-5.59845
-5.59678
-5.59637
-5.59597
-5.59547
-5.59491
-5.59423
-5.68979
-5.74505
-5.727
-5.71378
-5.70929
-5.70726
-5.70585
-5.70477
-5.70391
-5.70319
-5.70256
-5.702
-5.70148
-5.70098
-5.70051
-5.70004
-5.69956
-5.69908
-5.69858
-5.69807
-5.69753
-5.69697
-5.69639
-5.69579
-5.69516
-5.69452
-5.69387
-5.6932
-5.69252
-5.69184
-5.69116
-5.69047
-5.68977
-5.68905
-5.68827
-5.68738
-5.68621
-5.6843
-5.68134
-5.68077
-5.68215
-5.683
-5.68342
-5.68362
-5.68368
)
;

boundaryField
{
    leftWall
    {
        type            calculated;
        value           nonuniform List<scalar> 
42
(
26.6243
9.2286
1.52818
-3.93746
-3.85449
-3.87893
-3.9124
-3.94581
-3.97528
-4.00102
-4.02482
-4.04898
-4.07486
-4.10293
-4.13369
-4.16723
-4.20323
-4.24154
-4.28233
-4.32564
-4.37122
-4.41878
-4.46827
-4.51967
-4.57291
-4.62788
-4.68459
-4.74302
-4.803
-4.8642
-4.92635
-4.98948
-5.05391
-5.12005
-5.18808
-5.25802
-5.32961
-5.40241
-5.47685
-5.55497
-5.63302
-5.68979
)
;
    }
    rightWall
    {
        type            calculated;
        value           nonuniform 0();
    }
    lowerWall
    {
        type            calculated;
        value           nonuniform 0();
    }
    atmosphere
    {
        type            calculated;
        value           nonuniform List<scalar> 
45
(
-5.73676
-5.7489
-5.74586
-5.7438
-5.7423
-5.74111
-5.74012
-5.73928
-5.73854
-5.73788
-5.73728
-5.73673
-5.7362
-5.73571
-5.73523
-5.73476
-5.73431
-5.73387
-5.73344
-5.73303
-5.73264
-5.73226
-5.73189
-5.73155
-5.73123
-5.73093
-5.73065
-5.73039
-5.73015
-5.72994
-5.72975
-5.72959
-5.72945
-5.72933
-5.72923
-5.72915
-5.7291
-5.72906
-5.72904
-5.72904
-5.72904
-5.72904
-5.72904
-5.72904
-5.72904
)
;
    }
    defaultFaces
    {
        type            empty;
    }
    procBoundary2to0
    {
        type            processor;
        value           nonuniform List<scalar> 
46
(
25.6145
19.1611
10.1558
0.395964
-1.93216
-2.07635
-2.03754
-2.00734
-1.98746
-1.96674
-1.94479
-1.92291
-1.90171
-1.88155
-1.86264
-1.84514
-1.82913
-1.81464
-1.80166
-1.7901
-1.77984
-1.77075
-1.76271
-1.75569
-1.74965
50.6707
51.5403
52.4095
53.7747
54.9474
55.8659
56.3897
56.4323
55.9542
54.9558
53.4717
51.5477
49.209
46.4602
43.318
39.8221
36.0116
31.928
27.6114
23.1409
23.1409
)
;
    }
    procBoundary2to3
    {
        type            processor;
        value           nonuniform List<scalar> 
43
(
-1.84243
-1.94038
-2.03836
-2.13629
-2.23398
-2.33138
-2.42845
-2.52509
-2.62127
-2.71691
-2.81199
-2.90648
-3.00037
-3.09365
-3.18634
-3.27848
-3.37008
-3.46121
-3.5519
-3.64222
-3.7322
-3.82189
-3.91132
-4.00052
-4.0895
-4.17826
-4.26684
-4.35525
-4.44354
-4.53176
-4.61997
-4.7082
-4.79649
-4.88485
-4.97326
-5.0617
-5.15014
-5.23856
-5.32699
-5.41548
-5.5042
-5.59338
-5.68361
)
;
    }
}


// ************************************************************************* //
