/*--------------------------------*- C++ -*----------------------------------*\
| =========                 |                                                 |
| \\      /  F ield         | OpenFOAM: The Open Source CFD Toolbox           |
|  \\    /   O peration     | Version:  5.0                                   |
|   \\  /    A nd           | Web:      www.OpenFOAM.org                      |
|    \\/     M anipulation  |                                                 |
\*---------------------------------------------------------------------------*/
FoamFile
{
    version     2.0;
    format      ascii;
    class       surfaceScalarField;
    location    "0.1";
    object      phi;
}
// * * * * * * * * * * * * * * * * * * * * * * * * * * * * * * * * * * * * * //

dimensions      [0 3 -1 0 0 0 0];

internalField   nonuniform List<scalar> 
3742
(
4.40847e-06
-4.19116e-05
4.58517e-06
-4.18991e-05
4.77641e-06
-4.16289e-05
4.94251e-06
-4.08179e-05
5.10496e-06
-3.95339e-05
3.34101e-06
-1.85809e-05
1.60993e-06
-1.13351e-06
1.56811e-07
1.20043e-05
-9.88902e-07
2.13669e-05
-1.82349e-06
2.7575e-05
-2.37207e-06
3.13147e-05
-2.68003e-06
3.32427e-05
-2.79628e-06
3.39207e-05
-2.76558e-06
3.37863e-05
-2.62561e-06
3.31554e-05
-2.40692e-06
3.22437e-05
-2.1337e-06
3.11915e-05
-1.82488e-06
3.00854e-05
-1.49499e-06
2.89753e-05
-1.15509e-06
2.78876e-05
-8.1374e-07
2.68343e-05
-4.77135e-07
2.58189e-05
-1.4916e-07
2.48406e-05
1.63331e-07
2.38963e-05
2.29817e-05
-7.79536e-07
-6.0444e-05
-7.74494e-07
-5.86352e-05
-5.32637e-07
-5.51875e-05
-2.19234e-07
-5.19008e-05
1.1417e-07
-4.90007e-05
4.46565e-07
-4.65502e-05
7.68409e-07
-4.45566e-05
1.07597e-06
-4.29968e-05
1.3681e-06
-4.18314e-05
1.64485e-06
-4.10128e-05
1.9065e-06
-4.04908e-05
2.153e-06
-4.0215e-05
2.38396e-06
-4.01381e-05
2.59889e-06
-4.0216e-05
2.79741e-06
-4.04087e-05
2.97954e-06
-4.06801e-05
3.14596e-06
-4.0997e-05
3.29831e-06
-4.13271e-05
3.43899e-06
-4.16375e-05
3.57299e-06
-4.18917e-05
3.70801e-06
-4.20466e-05
3.8552e-06
-4.20463e-05
4.02298e-06
-4.17967e-05
4.17541e-06
-4.09703e-05
4.33623e-06
-3.96948e-05
2.71824e-06
-1.69629e-05
7.39825e-07
8.44941e-07
-1.07786e-06
1.38219e-05
-2.51499e-06
2.2804e-05
-3.53172e-06
2.85917e-05
-4.16507e-06
3.19481e-05
-4.48573e-06
3.35633e-05
-4.5672e-06
3.40022e-05
-4.47317e-06
3.36923e-05
-4.25478e-06
3.29371e-05
-3.95144e-06
3.19404e-05
-3.59284e-06
3.08329e-05
-3.20113e-06
2.96936e-05
-2.79259e-06
2.85667e-05
-2.37909e-06
2.74741e-05
-1.96924e-06
2.64245e-05
-1.56937e-06
2.54191e-05
-1.18385e-06
2.4455e-05
-8.16075e-07
2.35285e-05
2.26334e-05
-9.27006e-07
-5.9517e-05
-1.41874e-06
-5.81435e-05
-1.29388e-06
-5.53124e-05
-9.58451e-07
-5.22362e-05
-5.72438e-07
-4.93867e-05
-1.83647e-07
-4.6939e-05
1.89365e-07
-4.49296e-05
5.41112e-07
-4.33486e-05
8.69574e-07
-4.21599e-05
1.17481e-06
-4.13181e-05
1.45715e-06
-4.07731e-05
1.71688e-06
-4.04748e-05
1.95405e-06
-4.03753e-05
2.16851e-06
-4.04304e-05
2.36011e-06
-4.06003e-05
2.529e-06
-4.0849e-05
2.67593e-06
-4.11439e-05
2.80256e-06
-4.14538e-05
2.91194e-06
-4.17469e-05
3.00919e-06
-4.19889e-05
3.10565e-06
-4.21431e-05
3.22106e-06
-4.21617e-05
3.35483e-06
-4.19305e-05
3.44847e-06
-4.1064e-05
3.48185e-06
-3.97281e-05
1.46691e-06
-1.49479e-05
-9.51448e-07
3.26334e-06
-3.09801e-06
1.59686e-05
-4.72265e-06
2.44286e-05
-5.79347e-06
2.96625e-05
-6.39307e-06
3.25477e-05
-6.62719e-06
3.37975e-05
-6.59492e-06
3.39699e-05
-6.37655e-06
3.34739e-05
-6.03305e-06
3.25936e-05
-5.60947e-06
3.15168e-05
-5.13843e-06
3.03619e-05
-4.64325e-06
2.91984e-05
-4.14036e-06
2.80638e-05
-3.64116e-06
2.69749e-05
-3.15354e-06
2.5937e-05
-2.68301e-06
2.49486e-05
-2.23342e-06
2.40054e-05
-1.80736e-06
2.31024e-05
2.22338e-05
-2.49978e-07
-5.92671e-05
-2.55182e-06
-5.58416e-05
-2.51154e-06
-5.53526e-05
-2.09235e-06
-5.26554e-05
-1.59984e-06
-4.98792e-05
-1.09476e-06
-4.74441e-05
-6.03122e-07
-4.54213e-05
-1.40393e-07
-4.38113e-05
2.86252e-07
-4.25865e-05
6.75037e-07
-4.17068e-05
1.02633e-06
-4.11244e-05
1.34099e-06
-4.07894e-05
1.61978e-06
-4.06541e-05
1.86325e-06
-4.06739e-05
2.07178e-06
-4.08088e-05
2.24583e-06
-4.10231e-05
2.38629e-06
-4.12844e-05
2.49475e-06
-4.15622e-05
2.57414e-06
-4.18263e-05
2.62907e-06
-4.20439e-05
2.66784e-06
-4.21818e-05
2.74551e-06
-4.22394e-05
2.86476e-06
-4.20497e-05
2.79755e-06
-4.09968e-05
1.93244e-06
-3.8863e-05
-1.12296e-06
-1.18925e-05
-4.02142e-06
6.16185e-06
-6.3084e-06
1.82556e-05
-7.86529e-06
2.59855e-05
-8.76336e-06
3.05606e-05
-9.14567e-06
3.293e-05
-9.15364e-06
3.38054e-05
-8.90397e-06
3.37202e-05
-8.48497e-06
3.30549e-05
-7.96061e-06
3.20692e-05
-7.3762e-06
3.09324e-05
-6.76316e-06
2.97488e-05
-6.14289e-06
2.85782e-05
-5.52973e-06
2.74506e-05
-4.93308e-06
2.63782e-05
-4.35902e-06
2.53629e-05
-3.81145e-06
2.4401e-05
-3.29282e-06
2.34867e-05
-2.80445e-06
2.2614e-05
2.17768e-05
3.40723e-06
-6.26743e-05
-4.99377e-06
-4.74407e-05
-4.89413e-06
-5.54523e-05
-4.109e-06
-5.34406e-05
-3.22975e-06
-5.07584e-05
-2.4208e-06
-4.82531e-05
-1.67374e-06
-4.61683e-05
-9.98118e-07
-4.44869e-05
-3.90728e-07
-4.31939e-05
1.52058e-07
-4.22496e-05
6.33107e-07
-4.16054e-05
1.05452e-06
-4.12108e-05
1.41825e-06
-4.10178e-05
1.72613e-06
-4.09818e-05
1.97972e-06
-4.10624e-05
2.18026e-06
-4.12236e-05
2.32852e-06
-4.14326e-05
2.4254e-06
-4.16591e-05
2.4725e-06
-4.18734e-05
2.47234e-06
-4.20437e-05
2.41164e-06
-4.21211e-05
2.35552e-06
-4.21833e-05
2.5271e-06
-4.22213e-05
2.20878e-06
-4.06784e-05
-1.96839e-06
-3.46859e-05
-6.12366e-06
-7.7372e-06
-9.14318e-06
9.18138e-06
-1.10672e-05
2.01797e-05
-1.21161e-05
2.70344e-05
-1.25144e-05
3.0959e-05
-1.24456e-05
3.28612e-05
-1.20625e-05
3.34224e-05
-1.14799e-05
3.31376e-05
-1.07793e-05
3.23543e-05
-1.00173e-05
3.13072e-05
-9.23217e-06
3.01472e-05
-8.44894e-06
2.89656e-05
-7.6836e-06
2.78128e-05
-6.94593e-06
2.6713e-05
-6.24165e-06
2.5674e-05
-5.57385e-06
2.46951e-05
-4.94399e-06
2.37712e-05
-4.35254e-06
2.28953e-05
-3.79932e-06
2.20608e-05
2.12615e-05
-4.23084e-07
-6.22513e-05
-2.13195e-06
-4.57317e-05
-5.81239e-06
-5.1772e-05
-6.54502e-06
-5.27079e-05
-5.68369e-06
-5.16197e-05
-4.47609e-06
-4.94607e-05
-3.26139e-06
-4.7383e-05
-2.19812e-06
-4.55502e-05
-1.26866e-06
-4.41234e-05
-4.5619e-07
-4.30621e-05
2.48904e-07
-4.23105e-05
8.52447e-07
-4.18144e-05
1.35972e-06
-4.15251e-05
1.77615e-06
-4.13982e-05
2.10629e-06
-4.13926e-05
2.3535e-06
-4.14708e-05
2.51924e-06
-4.15984e-05
2.60386e-06
-4.17437e-05
2.60533e-06
-4.18749e-05
2.51936e-06
-4.19577e-05
2.29331e-06
-4.18951e-05
1.66991e-06
-4.15599e-05
8.29947e-07
-4.13814e-05
-8.22003e-07
-3.90265e-05
-9.40004e-06
-2.61078e-05
-1.4031e-05
-3.10618e-06
-1.63537e-05
1.15041e-05
-1.72505e-05
2.10765e-05
-1.73359e-05
2.71198e-05
-1.69163e-05
3.05394e-05
-1.61825e-05
3.21274e-05
-1.52641e-05
3.25039e-05
-1.42504e-05
3.21239e-05
-1.32015e-05
3.13054e-05
-1.21564e-05
3.02621e-05
-1.11395e-05
2.91303e-05
-1.01648e-05
2.7991e-05
-9.23991e-06
2.68879e-05
-8.36786e-06
2.58409e-05
-7.54926e-06
2.48554e-05
-6.7832e-06
2.3929e-05
-6.06804e-06
2.3056e-05
-5.40186e-06
2.22291e-05
-4.78262e-06
2.14415e-05
2.06874e-05
4.1525e-07
-6.26667e-05
3.74193e-06
-4.90582e-05
1.82834e-06
-4.98583e-05
-5.82072e-07
-5.02975e-05
-2.40231e-06
-4.97996e-05
-3.20127e-06
-4.86617e-05
-3.47318e-06
-4.71111e-05
-3.02917e-06
-4.59943e-05
-2.15457e-06
-4.49979e-05
-1.18359e-06
-4.40331e-05
-2.87108e-07
-4.3207e-05
4.77418e-07
-4.25789e-05
1.09656e-06
-4.21442e-05
1.56945e-06
-4.18711e-05
1.89651e-06
-4.17196e-05
2.07415e-06
-4.16485e-05
2.09421e-06
-4.16185e-05
1.94438e-06
-4.15939e-05
1.61832e-06
-4.15488e-05
1.09569e-06
-4.14351e-05
2.87624e-07
-4.1087e-05
-1.12515e-06
-4.01471e-05
-4.87696e-06
-3.76296e-05
-1.26116e-05
-3.12918e-05
-2.18355e-05
-1.68839e-05
-2.43444e-05
-5.97197e-07
-2.46747e-05
1.18344e-05
-2.40843e-05
2.0486e-05
-2.29712e-05
2.60068e-05
-2.15904e-05
2.91585e-05
-2.00939e-05
3.0631e-05
-1.8573e-05
3.0983e-05
-1.70822e-05
3.06331e-05
-1.56538e-05
2.9877e-05
-1.43047e-05
2.89131e-05
-1.30423e-05
2.78679e-05
-1.18676e-05
2.68162e-05
-1.07778e-05
2.57982e-05
-9.76839e-06
2.48315e-05
-8.83392e-06
2.39209e-05
-7.96903e-06
2.30641e-05
-7.16866e-06
2.22556e-05
-6.42824e-06
2.14887e-05
-5.74375e-06
2.0757e-05
2.00554e-05
9.02144e-07
-6.3569e-05
5.28767e-06
-5.34439e-05
5.30247e-06
-4.98732e-05
3.52529e-06
-4.85203e-05
1.47181e-06
-4.77461e-05
-2.38026e-07
-4.69519e-05
-1.31848e-06
-4.60307e-05
-2.12565e-06
-4.5187e-05
-2.73805e-06
-4.43856e-05
-3.17522e-06
-4.35959e-05
-3.50018e-06
-4.2882e-05
-3.78254e-06
-4.22965e-05
-4.07555e-06
-4.18513e-05
-4.41763e-06
-4.1529e-05
-4.83948e-06
-4.12978e-05
-5.36867e-06
-4.11193e-05
-6.03658e-06
-4.09505e-05
-6.89043e-06
-4.074e-05
-8.02332e-06
-4.04159e-05
-9.60209e-06
-3.98563e-05
-1.19209e-05
-3.87682e-05
-1.54982e-05
-3.65698e-05
-2.0828e-05
-3.22997e-05
-2.7481e-05
-2.46388e-05
-3.18429e-05
-1.25221e-05
-3.28234e-05
3.83348e-07
-3.20094e-05
1.10204e-05
-3.03117e-05
1.87883e-05
-2.82202e-05
2.39153e-05
-2.60079e-05
2.69463e-05
-2.38239e-05
2.8447e-05
-2.17437e-05
2.89027e-05
-1.98022e-05
2.86916e-05
-1.80115e-05
2.80863e-05
-1.63709e-05
2.72725e-05
-1.48727e-05
2.63697e-05
-1.35057e-05
2.54492e-05
-1.22575e-05
2.455e-05
-1.11161e-05
2.36901e-05
-1.00706e-05
2.28753e-05
-9.11108e-06
2.21046e-05
-8.22921e-06
2.13738e-05
-7.41787e-06
2.06774e-05
-6.67108e-06
2.00103e-05
1.93682e-05
3.41925e-07
-6.39109e-05
2.90973e-06
-5.60118e-05
3.69225e-06
-5.06557e-05
2.92779e-06
-4.77558e-05
1.39882e-06
-4.62171e-05
-3.00613e-07
-4.52525e-05
-1.86365e-06
-4.44677e-05
-3.27941e-06
-4.37712e-05
-4.55705e-06
-4.3108e-05
-5.68781e-06
-4.24651e-05
-6.69569e-06
-4.18742e-05
-7.62715e-06
-4.13651e-05
-8.53288e-06
-4.09455e-05
-9.45946e-06
-4.06024e-05
-1.045e-05
-4.03073e-05
-1.15489e-05
-4.00203e-05
-1.28115e-05
-3.96879e-05
-1.43164e-05
-3.92352e-05
-1.61859e-05
-3.85464e-05
-1.8607e-05
-3.74351e-05
-2.18049e-05
-3.55703e-05
-2.59309e-05
-3.24438e-05
-3.08611e-05
-2.73695e-05
-3.57475e-05
-1.97524e-05
-3.85268e-05
-9.74283e-06
-3.88306e-05
6.87042e-07
-3.74739e-05
9.66364e-06
-3.51931e-05
1.65077e-05
-3.25085e-05
2.12307e-05
-2.97372e-05
2.4175e-05
-2.70528e-05
2.57626e-05
-2.45419e-05
2.63918e-05
-2.22387e-05
2.63884e-05
-2.01484e-05
2.5996e-05
-1.82612e-05
2.53853e-05
-1.656e-05
2.46684e-05
-1.50251e-05
2.39143e-05
-1.36371e-05
2.3162e-05
-1.23784e-05
2.24313e-05
-1.12332e-05
2.17301e-05
-1.01883e-05
2.10597e-05
-9.23245e-06
2.0418e-05
-8.35645e-06
1.98014e-05
-7.55263e-06
1.92065e-05
1.86303e-05
-1.0879e-06
-6.28229e-05
-4.80032e-07
-5.66196e-05
9.01825e-09
-5.11449e-05
-2.25847e-07
-4.7521e-05
-1.13011e-06
-4.53129e-05
-2.44644e-06
-4.39361e-05
-3.94001e-06
-4.29741e-05
-5.48399e-06
-4.22273e-05
-7.00543e-06
-4.15864e-05
-8.46271e-06
-4.1008e-05
-9.851e-06
-4.04859e-05
-1.11935e-05
-4.00226e-05
-1.25265e-05
-3.96125e-05
-1.38916e-05
-3.92373e-05
-1.53337e-05
-3.88651e-05
-1.69043e-05
-3.84497e-05
-1.86665e-05
-3.79257e-05
-2.07012e-05
-3.72004e-05
-2.31115e-05
-3.61361e-05
-2.60144e-05
-3.45322e-05
-2.94816e-05
-3.21031e-05
-3.34579e-05
-2.84676e-05
-3.75761e-05
-2.32513e-05
-4.10466e-05
-1.62818e-05
-4.28343e-05
-7.95521e-06
-4.26892e-05
5.41937e-07
-4.10692e-05
8.04368e-06
-3.85463e-05
1.39848e-05
-3.55972e-05
1.82816e-05
-3.25422e-05
2.112e-05
-2.95755e-05
2.27959e-05
-2.67999e-05
2.36163e-05
-2.42589e-05
2.38474e-05
-2.1961e-05
2.36981e-05
-1.98953e-05
2.33196e-05
-1.80417e-05
2.28148e-05
-1.63771e-05
2.22496e-05
-1.48783e-05
2.16633e-05
-1.35244e-05
2.10774e-05
-1.2297e-05
2.05027e-05
-1.11804e-05
1.99431e-05
-1.01617e-05
1.93993e-05
-9.23011e-06
1.88698e-05
-8.37673e-06
1.83531e-05
1.7848e-05
-2.31194e-06
-6.05109e-05
-2.99208e-06
-5.59396e-05
-3.16667e-06
-5.09702e-05
-3.47688e-06
-4.72108e-05
-4.16411e-06
-4.46257e-05
-5.22253e-06
-4.28777e-05
-6.54009e-06
-4.16566e-05
-8.01591e-06
-4.07515e-05
-9.56926e-06
-4.00331e-05
-1.11475e-05
-3.94298e-05
-1.27293e-05
-3.89041e-05
-1.4319e-05
-3.84328e-05
-1.59378e-05
-3.79937e-05
-1.76172e-05
-3.75579e-05
-1.93957e-05
-3.70867e-05
-2.13184e-05
-3.6527e-05
-2.34384e-05
-3.58057e-05
-2.58152e-05
-3.48236e-05
-2.8507e-05
-3.34443e-05
-3.15498e-05
-3.14894e-05
-3.49121e-05
-2.87408e-05
-3.84163e-05
-2.49635e-05
-4.16834e-05
-1.99841e-05
-4.41319e-05
-1.38334e-05
-4.51907e-05
-6.89641e-06
-4.47158e-05
6.70365e-08
-4.2992e-05
6.31987e-06
-4.0446e-05
1.14388e-05
-3.74695e-05
1.53051e-05
-3.43586e-05
1.80091e-05
-3.1309e-05
1.97463e-05
-2.84335e-05
2.07408e-05
-2.57861e-05
2.12e-05
-2.33828e-05
2.12948e-05
-2.12175e-05
2.11542e-05
-1.9272e-05
2.08694e-05
-1.7524e-05
2.05015e-05
-1.59501e-05
2.00894e-05
-1.45288e-05
1.9656e-05
-1.32409e-05
1.92147e-05
-1.20699e-05
1.87722e-05
-1.10022e-05
1.83316e-05
-1.00263e-05
1.78939e-05
-9.13268e-06
1.74595e-05
1.70289e-05
-2.75082e-06
-5.77602e-05
-4.28486e-06
-5.44055e-05
-5.13633e-06
-5.01187e-05
-5.80832e-06
-4.65389e-05
-6.59992e-06
-4.38341e-05
-7.619e-06
-4.18585e-05
-8.85953e-06
-4.04161e-05
-1.02738e-05
-3.93371e-05
-1.18089e-05
-3.84981e-05
-1.34234e-05
-3.78153e-05
-1.50952e-05
-3.72323e-05
-1.68208e-05
-3.67073e-05
-1.8611e-05
-3.62034e-05
-2.04874e-05
-3.56815e-05
-2.24785e-05
-3.50956e-05
-2.46169e-05
-3.43886e-05
-2.69358e-05
-3.34868e-05
-2.9464e-05
-3.22953e-05
-3.22133e-05
-3.06951e-05
-3.51578e-05
-2.85449e-05
-3.82029e-05
-2.56956e-05
-4.11469e-05
-2.20195e-05
-4.36658e-05
-1.74652e-05
-4.53615e-05
-1.21378e-05
-4.59034e-05
-6.35448e-06
-4.52236e-05
-6.12802e-07
-4.35144e-05
4.61074e-06
-4.10833e-05
9.00776e-06
-3.82411e-05
1.24628e-05
-3.52425e-05
1.50106e-05
-3.22691e-05
1.67729e-05
-2.94345e-05
1.79062e-05
-2.67996e-05
1.85651e-05
-2.43883e-05
1.88834e-05
-2.2201e-05
1.89669e-05
-2.02253e-05
1.88937e-05
-1.84424e-05
1.87186e-05
-1.68317e-05
1.84786e-05
-1.53732e-05
1.81975e-05
-1.40489e-05
1.78904e-05
-1.2843e-05
1.75663e-05
-1.1742e-05
1.72306e-05
-1.07346e-05
1.68866e-05
-9.81137e-06
1.65363e-05
1.61819e-05
-2.75603e-06
-5.50041e-05
-4.73899e-06
-5.24224e-05
-6.10703e-06
-4.87507e-05
-7.17659e-06
-4.54693e-05
-8.20489e-06
-4.28058e-05
-9.326e-06
-4.07374e-05
-1.05885e-05
-3.91536e-05
-1.19916e-05
-3.7934e-05
-1.35149e-05
-3.69748e-05
-1.51363e-05
-3.61939e-05
-1.68415e-05
-3.5527e-05
-1.86268e-05
-3.4922e-05
-2.04981e-05
-3.43322e-05
-2.24682e-05
-3.37113e-05
-2.45546e-05
-3.30092e-05
-2.6775e-05
-3.21683e-05
-2.91424e-05
-3.11193e-05
-3.16583e-05
-2.97795e-05
-3.42994e-05
-2.8054e-05
-3.70035e-05
-2.58409e-05
-3.96517e-05
-2.30475e-05
-4.20562e-05
-1.9615e-05
-4.39669e-05
-1.55545e-05
-4.51195e-05
-1.09853e-05
-4.53221e-05
-6.15187e-06
-4.45494e-05
-1.38542e-06
-4.29366e-05
2.99792e-06
-4.07073e-05
6.77837e-06
-3.81007e-05
9.8563e-06
-3.53258e-05
1.22357e-05
-3.25412e-05
1.39883e-05
-2.98537e-05
1.52186e-05
-2.7326e-05
1.60374e-05
-2.49878e-05
1.65452e-05
-2.28467e-05
1.68257e-05
-2.08965e-05
1.69435e-05
-1.91242e-05
1.69462e-05
-1.75134e-05
1.68678e-05
-1.60477e-05
1.67318e-05
-1.47113e-05
1.6554e-05
-1.34903e-05
1.63453e-05
-1.23725e-05
1.61127e-05
-1.13472e-05
1.58613e-05
-1.04057e-05
1.55948e-05
1.53166e-05
-2.64408e-06
-5.23602e-05
-4.79667e-06
-5.027e-05
-6.47372e-06
-4.70736e-05
-7.85233e-06
-4.40907e-05
-9.11256e-06
-4.15456e-05
-1.03761e-05
-3.9474e-05
-1.17082e-05
-3.78215e-05
-1.3134e-05
-3.65081e-05
-1.46572e-05
-3.54517e-05
-1.62731e-05
-3.45781e-05
-1.79768e-05
-3.38233e-05
-1.97676e-05
-3.31313e-05
-2.16489e-05
-3.2451e-05
-2.36273e-05
-3.17328e-05
-2.57104e-05
-3.09262e-05
-2.79025e-05
-2.99761e-05
-3.01998e-05
-2.88219e-05
-3.25834e-05
-2.73959e-05
-3.50104e-05
-2.5627e-05
-3.74043e-05
-2.3447e-05
-3.96477e-05
-2.08041e-05
-4.15825e-05
-1.76802e-05
-4.30251e-05
-1.4112e-05
-4.38018e-05
-1.02085e-05
-4.38025e-05
-6.15119e-06
-4.30227e-05
-2.16513e-06
-4.15618e-05
1.53696e-06
-3.95823e-05
4.79892e-06
-3.72655e-05
7.53948e-06
-3.4777e-05
9.74724e-06
-3.22497e-05
1.1461e-05
-2.97786e-05
1.27475e-05
-2.7424e-05
1.36828e-05
-2.5219e-05
1.43402e-05
-2.31768e-05
1.47835e-05
-2.12978e-05
1.50644e-05
-1.95746e-05
1.5223e-05
-1.79963e-05
1.52895e-05
-1.65505e-05
1.5286e-05
-1.52248e-05
1.52284e-05
-1.40078e-05
1.51282e-05
-1.2889e-05
1.49939e-05
-1.18593e-05
1.48316e-05
-1.09109e-05
1.46463e-05
1.44426e-05
-2.49495e-06
-4.98653e-05
-4.68411e-06
-4.80806e-05
-6.51602e-06
-4.52417e-05
-8.09299e-06
-4.25137e-05
-9.52794e-06
-4.01106e-05
-1.09168e-05
-3.80851e-05
-1.23218e-05
-3.64166e-05
-1.37778e-05
-3.50522e-05
-1.53017e-05
-3.39278e-05
-1.69003e-05
-3.29794e-05
-1.85768e-05
-3.21468e-05
-2.03332e-05
-3.1375e-05
-2.21716e-05
-3.06125e-05
-2.40942e-05
-2.98103e-05
-2.61005e-05
-2.89198e-05
-2.81852e-05
-2.78914e-05
-3.0333e-05
-2.66742e-05
-3.25134e-05
-2.52156e-05
-3.46754e-05
-2.34649e-05
-3.67429e-05
-2.13795e-05
-3.86127e-05
-1.89343e-05
-4.01602e-05
-1.61327e-05
-4.12538e-05
-1.30183e-05
-4.17808e-05
-9.6815e-06
-4.1677e-05
-6.25494e-06
-4.09487e-05
-2.89344e-06
-3.96693e-05
2.57513e-07
-3.79572e-05
3.08687e-06
-3.59479e-05
5.53021e-06
-3.377e-05
7.5693e-06
-3.1531e-05
9.22204e-06
-2.93123e-05
1.05287e-05
-2.71692e-05
1.15397e-05
-2.51356e-05
1.23066e-05
-2.32285e-05
1.28764e-05
-2.14537e-05
1.32896e-05
-1.98095e-05
1.35787e-05
-1.82898e-05
1.37698e-05
-1.68867e-05
1.38829e-05
-1.55915e-05
1.39331e-05
-1.43954e-05
1.39322e-05
-1.32903e-05
1.38888e-05
-1.22689e-05
1.38101e-05
-1.13244e-05
1.37019e-05
1.35694e-05
-2.352e-06
-4.75131e-05
-4.50646e-06
-4.59263e-05
-6.39745e-06
-4.33508e-05
-8.0787e-06
-4.08324e-05
-9.6225e-06
-3.85668e-05
-1.10973e-05
-3.66103e-05
-1.25551e-05
-3.49588e-05
-1.40312e-05
-3.35761e-05
-1.55474e-05
-3.24116e-05
-1.71166e-05
-3.14102e-05
-1.8746e-05
-3.05175e-05
-2.04395e-05
-2.96815e-05
-2.21987e-05
-2.88533e-05
-2.40224e-05
-2.79867e-05
-2.5905e-05
-2.70371e-05
-2.78347e-05
-2.59617e-05
-2.97901e-05
-2.47188e-05
-3.17365e-05
-2.32691e-05
-3.36232e-05
-2.15781e-05
-3.53818e-05
-1.96209e-05
-3.69278e-05
-1.73883e-05
-3.81666e-05
-1.48939e-05
-3.90058e-05
-1.21791e-05
-3.93719e-05
-9.3154e-06
-3.92278e-05
-6.39908e-06
-3.85833e-05
-3.53791e-06
-3.74929e-05
-8.32854e-07
-3.60427e-05
1.63666e-06
-3.43328e-05
3.82027e-06
-3.24612e-05
5.69772e-06
-3.05133e-05
7.27413e-06
-2.85566e-05
8.57203e-06
-2.66402e-05
9.62334e-06
-2.47967e-05
1.04631e-05
-2.30454e-05
1.11252e-05
-2.1396e-05
1.16401e-05
-1.98511e-05
1.20339e-05
-1.84094e-05
1.23281e-05
-1.70669e-05
1.25403e-05
-1.58181e-05
1.26844e-05
-1.46573e-05
1.27714e-05
-1.35787e-05
1.28102e-05
-1.25766e-05
1.28081e-05
-1.1646e-05
1.27713e-05
1.27055e-05
-2.22469e-06
-4.52885e-05
-4.31112e-06
-4.384e-05
-6.20323e-06
-4.14587e-05
-7.92314e-06
-3.91125e-05
-9.51887e-06
-3.69711e-05
-1.10375e-05
-3.50916e-05
-1.25199e-05
-3.34764e-05
-1.39976e-05
-3.20985e-05
-1.54926e-05
-3.09166e-05
-1.70193e-05
-2.98834e-05
-1.85867e-05
-2.89501e-05
-2.01991e-05
-2.8069e-05
-2.18574e-05
-2.7195e-05
-2.35581e-05
-2.6286e-05
-2.52929e-05
-2.53024e-05
-2.70468e-05
-2.42078e-05
-2.87963e-05
-2.29692e-05
-3.05074e-05
-2.1558e-05
-3.21341e-05
-1.99514e-05
-3.36189e-05
-1.81361e-05
-3.48954e-05
-1.61118e-05
-3.58938e-05
-1.38955e-05
-3.65496e-05
-1.15232e-05
-3.6815e-05
-9.05001e-06
-3.66684e-05
-6.54572e-06
-3.612e-05
-4.08625e-06
-3.52101e-05
-1.74277e-06
-3.40007e-05
4.27304e-07
-3.25653e-05
2.38483e-06
-3.09777e-05
4.11014e-06
-2.93046e-05
5.60104e-06
-2.76011e-05
6.8685e-06
-2.59094e-05
7.93165e-06
-2.42597e-05
8.81344e-06
-2.26722e-05
9.53759e-06
-2.11587e-05
1.01266e-05
-1.97254e-05
1.06006e-05
-1.83743e-05
1.0977e-05
-1.71048e-05
1.12708e-05
-1.59146e-05
1.14941e-05
-1.48004e-05
1.16572e-05
-1.37587e-05
1.17685e-05
-1.27856e-05
1.1835e-05
-1.18775e-05
1.18632e-05
1.18588e-05
-2.10884e-06
-4.31797e-05
-4.11778e-06
-4.18309e-05
-5.97584e-06
-3.96005e-05
-7.69223e-06
-3.73961e-05
-9.29685e-06
-3.53665e-05
-1.08232e-05
-3.35653e-05
-1.23028e-05
-3.19967e-05
-1.37621e-05
-3.06391e-05
-1.52211e-05
-2.94577e-05
-1.66936e-05
-2.8411e-05
-1.81883e-05
-2.74554e-05
-1.97094e-05
-2.65479e-05
-2.12567e-05
-2.56477e-05
-2.28255e-05
-2.47171e-05
-2.44061e-05
-2.37218e-05
-2.59827e-05
-2.26312e-05
-2.75323e-05
-2.14195e-05
-2.90243e-05
-2.0066e-05
-3.04195e-05
-1.85562e-05
-3.16717e-05
-1.6884e-05
-3.27298e-05
-1.50536e-05
-3.35434e-05
-1.30819e-05
-3.40678e-05
-1.09988e-05
-3.42716e-05
-8.84619e-06
-3.41423e-05
-6.67506e-06
-3.3689e-05
-4.53955e-06
-3.29411e-05
-2.49065e-06
-3.19433e-05
-5.70511e-07
-3.0749e-05
1.19052e-06
-2.94135e-05
2.77466e-06
-2.79884e-05
4.17594e-06
-2.65179e-05
5.39809e-06
-2.50379e-05
6.45163e-06
-2.35755e-05
7.35098e-06
-2.21501e-05
8.1122e-06
-2.0775e-05
8.75144e-06
-1.94583e-05
9.28393e-06
-1.82047e-05
9.72348e-06
-1.70162e-05
1.00823e-05
-1.58928e-05
1.03708e-05
-1.48337e-05
1.0598e-05
-1.38369e-05
1.07717e-05
-1.29005e-05
1.08986e-05
-1.20221e-05
1.09847e-05
1.1036e-05
-2.00559e-06
-4.11741e-05
-3.93548e-06
-3.9901e-05
-5.73868e-06
-3.77974e-05
-7.42266e-06
-3.57122e-05
-9.00546e-06
-3.37837e-05
-1.05118e-05
-3.2059e-05
-1.19663e-05
-3.05423e-05
-1.33902e-05
-2.92153e-05
-1.48006e-05
-2.80474e-05
-1.62096e-05
-2.70019e-05
-1.76251e-05
-2.60399e-05
-1.90504e-05
-2.51227e-05
-2.04844e-05
-2.42137e-05
-2.19218e-05
-2.32796e-05
-2.33527e-05
-2.22909e-05
-2.47618e-05
-2.12221e-05
-2.61283e-05
-2.00529e-05
-2.7426e-05
-1.87683e-05
-2.86228e-05
-1.73595e-05
-2.96825e-05
-1.58243e-05
-3.0567e-05
-1.41691e-05
-3.12397e-05
-1.24091e-05
-3.167e-05
-1.05685e-05
-3.18369e-05
-8.67929e-06
-3.17331e-05
-6.77882e-06
-3.13662e-05
-4.90642e-06
-3.07577e-05
-3.09921e-06
-2.99396e-05
-1.38862e-06
-2.89508e-05
2.01697e-07
-2.78324e-05
1.65632e-06
-2.66242e-05
2.96775e-06
-2.53616e-05
4.13543e-06
-2.40742e-05
5.16425e-06
-2.27859e-05
6.06271e-06
-2.1515e-05
6.84129e-06
-2.02748e-05
7.51126e-06
-1.90748e-05
8.08386e-06
-1.7921e-05
8.56971e-06
-1.68174e-05
8.97859e-06
-1.57658e-05
9.31923e-06
-1.47671e-05
9.59937e-06
-1.38212e-05
9.82582e-06
-1.29273e-05
1.00047e-05
-1.20843e-05
1.01417e-05
1.02426e-05
-1.91463e-06
-3.92594e-05
-3.76328e-06
-3.80524e-05
-5.50047e-06
-3.60602e-05
-7.13242e-06
-3.40802e-05
-8.67248e-06
-3.22436e-05
-1.01393e-05
-3.05921e-05
-1.1552e-05
-2.91296e-05
-1.29276e-05
-2.78396e-05
-1.42802e-05
-2.66948e-05
-1.56198e-05
-2.56622e-05
-1.69528e-05
-2.47069e-05
-1.82816e-05
-2.37939e-05
-1.96047e-05
-2.28906e-05
-2.09168e-05
-2.19676e-05
-2.22083e-05
-2.09994e-05
-2.34654e-05
-1.9965e-05
-2.46703e-05
-1.88481e-05
-2.5801e-05
-1.76377e-05
-2.6832e-05
-1.63285e-05
-2.77354e-05
-1.49208e-05
-2.84831e-05
-1.34214e-05
-2.90489e-05
-1.18434e-05
-2.94112e-05
-1.02062e-05
-2.95563e-05
-8.53426e-06
-2.94796e-05
-6.85541e-06
-2.91874e-05
-5.19861e-06
-2.86953e-05
-3.59137e-06
-2.80265e-05
-2.05747e-06
-2.72093e-05
-6.15532e-07
-2.62743e-05
7.21363e-07
-2.5252e-05
1.94549e-06
-2.41706e-05
3.05397e-06
-2.30545e-05
4.04816e-06
-2.19244e-05
4.93252e-06
-2.07966e-05
5.71356e-06
-1.96843e-05
6.39889e-06
-1.8597e-05
6.99656e-06
-1.75419e-05
7.51459e-06
-1.65239e-05
7.96061e-06
-1.55464e-05
8.34173e-06
-1.46113e-05
8.66439e-06
-1.372e-05
8.93447e-06
-1.28727e-05
9.15741e-06
-1.20693e-05
9.3384e-06
9.48275e-06
-1.82719e-06
-3.74322e-05
-3.59232e-06
-3.62872e-05
-5.25807e-06
-3.43944e-05
-6.82721e-06
-3.25111e-05
-8.3117e-06
-3.07591e-05
-9.72625e-06
-2.91776e-05
-1.10859e-05
-2.777e-05
-1.24045e-05
-2.65211e-05
-1.3693e-05
-2.54062e-05
-1.49598e-05
-2.43954e-05
-1.62098e-05
-2.34569e-05
-1.74446e-05
-2.25591e-05
-1.86624e-05
-2.16727e-05
-1.98582e-05
-2.07718e-05
-2.10235e-05
-1.98342e-05
-2.21463e-05
-1.88422e-05
-2.32116e-05
-1.77828e-05
-2.42015e-05
-1.66479e-05
-2.5096e-05
-1.5434e-05
-2.58738e-05
-1.41429e-05
-2.65142e-05
-1.2781e-05
-2.69982e-05
-1.13594e-05
-2.73109e-05
-9.89351e-06
-2.74429e-05
-8.40222e-06
-2.73918e-05
-6.90657e-06
-2.71622e-05
-5.42825e-06
-2.67656e-05
-3.98795e-06
-2.62191e-05
-2.60397e-06
-2.55435e-05
-1.29116e-06
-2.47616e-05
-6.05368e-08
-2.38968e-05
1.08062e-06
-2.29713e-05
2.12843e-06
-2.20052e-05
3.08209e-06
-2.10161e-05
3.9434e-06
-2.00186e-05
4.71608e-06
-1.90248e-05
5.40505e-06
-1.80441e-05
6.01591e-06
-1.70841e-05
6.55455e-06
-1.61503e-05
7.02681e-06
-1.52468e-05
7.4383e-06
-1.43767e-05
7.79429e-06
-1.35419e-05
8.09972e-06
-1.27438e-05
8.35929e-06
-1.19831e-05
8.57764e-06
8.75964e-06
-1.73649e-06
-3.56957e-05
-3.41757e-06
-3.46061e-05
-5.00866e-06
-3.28033e-05
-6.5101e-06
-3.10097e-05
-7.93212e-06
-2.93371e-05
-9.28685e-06
-2.78229e-05
-1.05865e-05
-2.64703e-05
-1.18423e-05
-2.52654e-05
-1.30632e-05
-2.41853e-05
-1.42559e-05
-2.32028e-05
-1.54241e-05
-2.22886e-05
-1.6569e-05
-2.14142e-05
-1.76889e-05
-2.05529e-05
-1.8779e-05
-1.96817e-05
-1.9832e-05
-1.87812e-05
-2.08378e-05
-1.78364e-05
-2.17839e-05
-1.68367e-05
-2.2656e-05
-1.57758e-05
-2.34385e-05
-1.46515e-05
-2.41153e-05
-1.34661e-05
-2.4671e-05
-1.22253e-05
-2.5092e-05
-1.09384e-05
-2.53677e-05
-9.61776e-06
-2.54919e-05
-8.27804e-06
-2.54631e-05
-6.93538e-06
-2.52851e-05
-5.6063e-06
-2.49664e-05
-4.30668e-06
-2.45195e-05
-3.05079e-06
-2.39601e-05
-1.85063e-06
-2.33052e-05
-7.15463e-07
-2.25727e-05
3.4813e-07
-2.17803e-05
1.33599e-06
-2.09444e-05
2.24618e-06
-2.00798e-05
3.07878e-06
-1.91993e-05
3.83558e-06
-1.83138e-05
4.51956e-06
-1.74324e-05
5.13448e-06
-1.65624e-05
5.68453e-06
-1.57096e-05
6.17405e-06
-1.48786e-05
6.60738e-06
-1.4073e-05
6.98872e-06
-1.32955e-05
7.32214e-06
-1.25478e-05
7.61164e-06
-1.18314e-05
7.86125e-06
8.07537e-06
-1.64666e-06
-3.40491e-05
-3.24396e-06
-3.30088e-05
-4.75733e-06
-3.129e-05
-6.1878e-06
-2.95792e-05
-7.54311e-06
-2.79818e-05
-8.83336e-06
-2.65327e-05
-1.00687e-05
-2.5235e-05
-1.12582e-05
-2.40758e-05
-1.24095e-05
-2.3034e-05
-1.35281e-05
-2.20842e-05
-1.4617e-05
-2.11996e-05
-1.56771e-05
-2.03541e-05
-1.67066e-05
-1.95235e-05
-1.77013e-05
-1.8687e-05
-1.86549e-05
-1.78276e-05
-1.95591e-05
-1.69323e-05
-2.04037e-05
-1.59922e-05
-2.11771e-05
-1.50022e-05
-2.18675e-05
-1.39612e-05
-2.24625e-05
-1.28711e-05
-2.29507e-05
-1.17371e-05
-2.33224e-05
-1.05667e-05
-2.357e-05
-9.37011e-06
-2.36894e-05
-8.15872e-06
-2.36797e-05
-6.94512e-06
-2.35438e-05
-5.74214e-06
-2.32884e-05
-4.56215e-06
-2.29227e-05
-3.41649e-06
-2.24584e-05
-2.31491e-06
-2.19087e-05
-1.26524e-06
-2.12872e-05
-2.73341e-07
-2.0608e-05
6.56755e-07
-1.98844e-05
1.5226e-06
-1.91289e-05
2.32328e-06
-1.83526e-05
3.05926e-06
-1.75652e-05
3.73214e-06
-1.6775e-05
4.34429e-06
-1.59891e-05
4.89858e-06
-1.52132e-05
5.39815e-06
-1.4452e-05
5.84626e-06
-1.37095e-05
6.24618e-06
-1.29886e-05
6.60121e-06
-1.22916e-05
6.91467e-06
-1.16204e-05
7.19003e-06
7.43119e-06
-1.56318e-06
-3.24859e-05
-3.07674e-06
-3.14952e-05
-4.51042e-06
-2.98563e-05
-5.86689e-06
-2.82227e-05
-7.15212e-06
-2.66966e-05
-8.37451e-06
-2.53103e-05
-9.54255e-06
-2.4067e-05
-1.0664e-05
-2.29544e-05
-1.17452e-05
-2.19528e-05
-1.27908e-05
-2.10386e-05
-1.38036e-05
-2.01869e-05
-1.4784e-05
-1.93737e-05
-1.57303e-05
-1.85772e-05
-1.6639e-05
-1.77783e-05
-1.75047e-05
-1.69619e-05
-1.83205e-05
-1.61165e-05
-1.90781e-05
-1.52345e-05
-1.97686e-05
-1.43117e-05
-2.03825e-05
-1.33473e-05
-2.09107e-05
-1.23429e-05
-2.13446e-05
-1.13031e-05
-2.1677e-05
-1.02343e-05
-2.19028e-05
-9.14433e-06
-2.2019e-05
-8.04259e-06
-2.20252e-05
-6.93895e-06
-2.19238e-05
-5.84354e-06
-2.17197e-05
-4.76621e-06
-2.14202e-05
-3.71605e-06
-2.10341e-05
-2.70107e-06
-2.05714e-05
-1.7279e-06
-2.00431e-05
-8.01722e-07
-1.946e-05
7.36948e-08
-1.88332e-05
8.95787e-07
-1.8173e-05
1.6631e-06
-1.7489e-05
2.37527e-06
-1.67898e-05
3.0329e-06
-1.60828e-05
3.63733e-06
-1.53747e-05
4.19042e-06
-1.46709e-05
4.69435e-06
-1.39761e-05
5.15149e-06
-1.32943e-05
5.56435e-06
-1.26286e-05
5.93552e-06
-1.19817e-05
6.26775e-06
-1.13557e-05
6.56399e-06
6.82761e-06
-1.48205e-06
-3.10039e-05
-2.91223e-06
-3.0065e-05
-4.26664e-06
-2.85018e-05
-5.54768e-06
-2.69417e-05
-6.76096e-06
-2.54834e-05
-7.91367e-06
-2.41577e-05
-9.01314e-06
-2.29675e-05
-1.00661e-05
-2.19015e-05
-1.10781e-05
-2.09409e-05
-1.2053e-05
-2.00636e-05
-1.29933e-05
-1.92467e-05
-1.38992e-05
-1.84679e-05
-1.47692e-05
-1.77071e-05
-1.56004e-05
-1.69471e-05
-1.63881e-05
-1.61742e-05
-1.71267e-05
-1.53779e-05
-1.78095e-05
-1.45516e-05
-1.84295e-05
-1.36917e-05
-1.89795e-05
-1.27973e-05
-1.94523e-05
-1.18701e-05
-1.98417e-05
-1.09137e-05
-2.01425e-05
-9.93356e-06
-2.03507e-05
-8.93611e-06
-2.04645e-05
-7.92885e-06
-2.04837e-05
-6.91976e-06
-2.04102e-05
-5.91698e-06
-2.0248e-05
-4.92843e-06
-2.00025e-05
-3.96154e-06
-1.96807e-05
-3.0229e-06
-1.92905e-05
-2.11817e-06
-1.88403e-05
-1.2519e-06
-1.8339e-05
-4.27576e-07
-1.77955e-05
3.52309e-07
-1.72185e-05
1.08608e-06
-1.66161e-05
1.77287e-06
-1.59958e-05
2.41259e-06
-1.53643e-05
3.00583e-06
-1.47276e-05
3.55369e-06
-1.40908e-05
4.05758e-06
-1.34585e-05
4.51918e-06
-1.28346e-05
4.94035e-06
-1.22222e-05
5.32309e-06
-1.16241e-05
5.66962e-06
-1.10425e-05
5.98246e-06
6.26449e-06
-1.39504e-06
-2.96088e-05
-2.74267e-06
-2.87174e-05
-4.01976e-06
-2.72248e-05
-5.2264e-06
-2.57351e-05
-6.36814e-06
-2.43416e-05
-7.45148e-06
-2.30743e-05
-8.4831e-06
-2.19359e-05
-9.46891e-06
-2.09156e-05
-1.04138e-05
-1.9996e-05
-1.13213e-05
-1.91562e-05
-1.21932e-05
-1.83748e-05
-1.30298e-05
-1.76313e-05
-1.38299e-05
-1.6907e-05
-1.45909e-05
-1.61861e-05
-1.53091e-05
-1.5456e-05
-1.59797e-05
-1.47073e-05
-1.65977e-05
-1.39337e-05
-1.71573e-05
-1.31321e-05
-1.76529e-05
-1.23017e-05
-1.80792e-05
-1.14438e-05
-1.84314e-05
-1.05615e-05
-1.87056e-05
-9.65933e-06
-1.88992e-05
-8.74258e-06
-1.90107e-05
-7.81737e-06
-1.90402e-05
-6.89024e-06
-1.89894e-05
-5.96781e-06
-1.88612e-05
-5.05659e-06
-1.86601e-05
-4.16265e-06
-1.83915e-05
-3.29153e-06
-1.80617e-05
-2.44803e-06
-1.76774e-05
-1.63617e-06
-1.72458e-05
-8.59132e-07
-1.67742e-05
-1.19305e-07
-1.62698e-05
5.81599e-07
-1.57394e-05
1.24246e-06
-1.51895e-05
1.86274e-06
-1.46262e-05
2.44248e-06
-1.40547e-05
2.9822e-06
-1.34798e-05
3.48274e-06
-1.29059e-05
3.94522e-06
-1.23366e-05
4.37097e-06
-1.1775e-05
4.7615e-06
-1.1224e-05
5.11857e-06
-1.06858e-05
5.44434e-06
5.7412e-06
-1.30093e-06
-2.83078e-05
-2.56662e-06
-2.74517e-05
-3.76769e-06
-2.60237e-05
-4.90207e-06
-2.46007e-05
-5.97433e-06
-2.32694e-05
-6.9904e-06
-2.20582e-05
-7.95633e-06
-2.097e-05
-8.87749e-06
-1.99945e-05
-9.75827e-06
-1.91152e-05
-1.06016e-05
-1.83128e-05
-1.14092e-05
-1.75672e-05
-1.21814e-05
-1.68591e-05
-1.29171e-05
-1.61713e-05
-1.36143e-05
-1.5489e-05
-1.42699e-05
-1.48004e-05
-1.48802e-05