/*--------------------------------*- C++ -*----------------------------------*\
| =========                 |                                                 |
| \\      /  F ield         | OpenFOAM: The Open Source CFD Toolbox           |
|  \\    /   O peration     | Version:  5.0                                   |
|   \\  /    A nd           | Web:      www.OpenFOAM.org                      |
|    \\/     M anipulation  |                                                 |
\*---------------------------------------------------------------------------*/
FoamFile
{
    version     2.0;
    format      ascii;
    class       volVectorField;
    location    "0.1";
    object      U;
}
// * * * * * * * * * * * * * * * * * * * * * * * * * * * * * * * * * * * * * //

dimensions      [0 1 -1 0 0 0 0];

internalField   nonuniform List<vector> 
1915
(
(0.0446909 -0.451411 0)
(0.0465612 -0.451218 0)
(0.0481085 -0.448194 0)
(0.0493644 -0.439472 0)
(0.0508247 -0.425672 0)
(0.0505669 -0.209505 0)
(0.025654 -0.0219574 0)
(0.00806997 0.120852 0)
(-0.0050857 0.223614 0)
(-0.015234 0.292497 0)
(-0.0223095 0.334622 0)
(-0.0266295 0.35691 0)
(-0.0287082 0.365392 0)
(-0.029052 0.364819 0)
(-0.0280879 0.35865 0)
(-0.0261672 0.349263 0)
(-0.0235727 0.338213 0)
(-0.0205256 0.326469 0)
(-0.0171951 0.314599 0)
(-0.0137109 0.302909 0)
(-0.0101714 0.291543 0)
(-0.00665397 0.280553 0)
(-0.0032245 0.269937 0)
(0.000126335 0.259645 0)
(0.00325113 0.249708 0)
(-0.00448671 -0.657853 0)
(-0.00999802 -0.63423 0)
(-0.00668502 -0.595097 0)
(-0.00392022 -0.55878 0)
(-0.000547506 -0.527139 0)
(0.00289312 -0.500588 0)
(0.00625338 -0.479088 0)
(0.00947982 -0.462326 0)
(0.0125488 -0.449839 0)
(0.0154591 -0.4411 0)
(0.0182164 -0.43556 0)
(0.0208203 -0.43268 0)
(0.0232657 -0.431947 0)
(0.025548 -0.432889 0)
(0.0276647 -0.435073 0)
(0.0296129 -0.438107 0)
(0.0313944 -0.441628 0)
(0.0330204 -0.445284 0)
(0.0345131 -0.448712 0)
(0.0358907 -0.451499 0)
(0.0372661 -0.453172 0)
(0.0387996 -0.45308 0)
(0.0401123 -0.450239 0)
(0.0411833 -0.441285 0)
(0.0426318 -0.427493 0)
(0.0427649 -0.192257 0)
(0.0183473 -0.0024343 0)
(-0.00264861 0.138455 0)
(-0.0193833 0.237677 0)
(-0.0319089 0.302694 0)
(-0.0402327 0.341217 0)
(-0.044946 0.360497 0)
(-0.0468435 0.366623 0)
(-0.0466443 0.364279 0)
(-0.044937 0.356821 0)
(-0.0421819 0.346527 0)
(-0.0387302 0.334866 0)
(-0.0348434 0.322737 0)
(-0.0307134 0.310652 0)
(-0.0264799 0.298874 0)
(-0.0222461 0.287514 0)
(-0.018085 0.2766 0)
(-0.014064 0.266111 0)
(-0.0102091 0.256011 0)
(-0.00651125 0.246207 0)
(0.00256011 -0.640572 0)
(-0.0172967 -0.627782 0)
(-0.0141634 -0.595348 0)
(-0.0115847 -0.561834 0)
(-0.00779241 -0.531108 0)
(-0.00379721 -0.504717 0)
(8.52094e-05 -0.483071 0)
(0.00376395 -0.466083 0)
(0.00721202 -0.453359 0)
(0.0104256 -0.444394 0)
(0.0134063 -0.43864 0)
(0.0161564 -0.435551 0)
(0.0186766 -0.434608 0)
(0.0209664 -0.435335 0)
(0.0230252 -0.437299 0)
(0.024853 -0.440112 0)
(0.0264529 -0.443416 0)
(0.0278347 -0.44687 0)
(0.0290173 -0.450124 0)
(0.0300423 -0.452798 0)
(0.0309955 -0.454437 0)
(0.0321518 -0.454516 0)
(0.0331978 -0.451896 0)
(0.0340316 -0.442868 0)
(0.0351341 -0.428987 0)
(0.0311988 -0.173353 0)
(0.00301875 0.0209233 0)
(-0.0214216 0.160003 0)
(-0.041013 0.254554 0)
(-0.0545369 0.314356 0)
(-0.0628059 0.348228 0)
(-0.0667885 0.363784 0)
(-0.0676037 0.367117 0)
(-0.0661693 0.362768 0)
(-0.0631938 0.353922 0)
(-0.0592088 0.342705 0)
(-0.0546032 0.330465 0)
(-0.049655 0.318009 0)
(-0.0445593 0.305777 0)
(-0.0394531 0.293981 0)
(-0.0344306 0.282695 0)
(-0.0295585 0.271918 0)
(-0.0248877 0.261611 0)
(-0.020449 0.25173 0)
(-0.0162449 0.24221 0)
(0.0320767 -0.624089 0)
(-0.0292951 -0.611437 0)
(-0.0265736 -0.588756 0)
(-0.0235284 -0.559891 0)
(-0.0186537 -0.531726 0)
(-0.0135196 -0.506808 0)
(-0.00845339 -0.485898 0)
(-0.00363686 -0.469148 0)
(0.000833851 -0.456381 0)
(0.00492842 -0.447232 0)
(0.00864482 -0.441221 0)
(0.0119893 -0.437833 0)
(0.0149694 -0.436564 0)
(0.0175915 -0.436944 0)
(0.019861 -0.438547 0)
(0.0217821 -0.440992 0)
(0.0233601 -0.44393 0)
(0.0246072 -0.447035 0)
(0.0255391 -0.449975 0)
(0.0261811 -0.452394 0)
(0.0266353 -0.453933 0)
(0.0272592 -0.454271 0)
(0.0278346 -0.452085 0)
(0.0287661 -0.443295 0)
(0.0288005 -0.427519 0)
(0.00539608 -0.146892 0)
(-0.0262115 0.0498611 0)
(-0.0531697 0.184657 0)
(-0.0728081 0.272559 0)
(-0.0849406 0.325679 0)
(-0.0910509 0.354065 0)
(-0.0927065 0.365489 0)
(-0.0912566 0.365884 0)
(-0.0877203 0.359536 0)
(-0.0828495 0.349389 0)
(-0.0771845 0.337374 0)
(-0.0711029 0.324694 0)
(-0.0648618 0.312047 0)
(-0.0586342 0.299796 0)
(-0.0525349 0.288098 0)
(-0.0466397 0.276988 0)
(-0.0409949 0.266439 0)
(-0.0356355 0.256395 0)
(-0.0305771 0.246794 0)
(-0.0258196 0.237578 0)
(0.139255 -0.650956 0)
(-0.0513941 -0.589572 0)
(-0.0503457 -0.591562 0)
(-0.0453436 -0.562562 0)
(-0.0365392 -0.533103 0)
(-0.0280985 -0.507774 0)
(-0.0202355 -0.486808 0)
(-0.0131374 -0.470066 0)
(-0.00674705 -0.457243 0)
(-0.00102613 -0.447944 0)
(0.00406622 -0.441709 0)
(0.00855415 -0.438046 0)
(0.0124576 -0.436475 0)
(0.0157956 -0.436539 0)
(0.0185863 -0.437825 0)
(0.0208441 -0.439959 0)
(0.0225793 -0.442607 0)
(0.0237987 -0.44545 0)
(0.0245103 -0.448174 0)
(0.0247173 -0.450445 0)
(0.0244593 -0.45195 0)
(0.0239556 -0.452706 0)
(0.0231073 -0.450954 0)
(0.0239838 -0.440601 0)
(0.022038 -0.41192 0)
(-0.0527944 -0.109824 0)
(-0.0793114 0.0829437 0)
(-0.102324 0.208801 0)
(-0.116944 0.287785 0)
(-0.123965 0.33355 0)
(-0.125212 0.356375 0)
(-0.122642 0.363892 0)
(-0.117607 0.361688 0)
(-0.111056 0.3537 0)
(-0.10366 0.34259 0)
(-0.095879 0.330082 0)
(-0.0880192 0.317228 0)
(-0.0802762 0.304618 0)
(-0.0727722 0.292541 0)
(-0.0655811 0.281102 0)
(-0.0587443 0.270304 0)
(-0.0522818 0.260099 0)
(-0.0462027 0.250414 0)
(-0.0405078 0.241181 0)
(-0.0351859 0.232335 0)
(0.0755856 -0.696167 0)
(-0.0314141 -0.498855 0)
(-0.0479461 -0.601177 0)
(-0.0678124 -0.58003 0)
(-0.0615119 -0.548785 0)
(-0.0503533 -0.520143 0)
(-0.0377688 -0.497075 0)
(-0.026578 -0.478789 0)
(-0.0167914 -0.464783 0)
(-0.00823233 -0.454576 0)
(-0.000762108 -0.447631 0)
(0.00567935 -0.443393 0)
(0.0111449 -0.441338 0)
(0.0156879 -0.440984 0)
(0.0193594 -0.441897 0)
(0.0222016 -0.443689 0)
(0.0242377 -0.446009 0)
(0.0254743 -0.44853 0)
(0.025902 -0.450936 0)
(0.0254768 -0.452884 0)
(0.0241841 -0.453809 0)
(0.0205537 -0.454756 0)
(0.0138002 -0.454213 0)
(0.000432148 -0.431866 0)
(-0.0224626 -0.343151 0)
(-0.138369 -0.06117 0)
(-0.156657 0.113843 0)
(-0.167481 0.225562 0)
(-0.171923 0.294943 0)
(-0.169952 0.334123 0)
(-0.163912 0.352505 0)
(-0.155491 0.357181 0)
(-0.14578 0.353287 0)
(-0.135485 0.344403 0)
(-0.125076 0.332935 0)
(-0.114854 0.320422 0)
(-0.105 0.307785 0)
(-0.0956127 0.295526 0)
(-0.086741 0.283874 0)
(-0.0784002 0.272897 0)
(-0.0705866 0.262575 0)
(-0.063285 0.252845 0)
(-0.0564779 0.24363 0)
(-0.0501438 0.234855 0)
(-0.0442597 0.226456 0)
(-0.0076336 -0.683723 0)
(0.0255779 -0.470403 0)
(0.0334494 -0.544878 0)
(0.00493127 -0.572913 0)
(-0.0171025 -0.570902 0)
(-0.0265063 -0.550069 0)
(-0.036849 -0.521825 0)
(-0.0337965 -0.498467 0)
(-0.0256295 -0.481068 0)
(-0.0160899 -0.468432 0)
(-0.00684113 -0.459673 0)
(0.00130159 -0.454029 0)
(0.00806117 -0.450842 0)
(0.0133903 -0.449536 0)
(0.0172987 -0.449607 0)
(0.019784 -0.450608 0)
(0.0207879 -0.452129 0)
(0.0202166 -0.453789 0)
(0.0179078 -0.45524 0)
(0.0137639 -0.456097 0)
(0.00755176 -0.455102 0)
(-0.00489333 -0.450719 0)
(-0.0157477 -0.447572 0)
(-0.0768014 -0.407814 0)
(-0.177072 -0.215874 0)
(-0.2369 -0.013141 0)
(-0.24361 0.130284 0)
(-0.240059 0.227923 0)
(-0.230893 0.289659 0)
(-0.218315 0.324537 0)
(-0.203969 0.340556 0)
(-0.189035 0.344083 0)
(-0.174203 0.339818 0)
(-0.15987 0.331065 0)
(-0.146259 0.320034 0)
(-0.133479 0.308132 0)
(-0.121563 0.296191 0)
(-0.110499 0.284656 0)
(-0.100248 0.27372 0)
(-0.0907585 0.263434 0)
(-0.0819771 0.25377 0)
(-0.0738505 0.244662 0)
(-0.0663322 0.236035 0)
(-0.0593787 0.227816 0)
(-0.0529502 0.219943 0)
(-0.0123691 -0.686183 0)
(0.0355087 -0.546296 0)
(0.0589069 -0.532722 0)
(0.0438052 -0.530566 0)
(0.023343 -0.528784 0)
(0.00510666 -0.522522 0)
(-0.00861226 -0.515297 0)
(-0.0175469 -0.508849 0)
(-0.0239755 -0.500779 0)
(-0.0289006 -0.49094 0)
(-0.0324432 -0.481233 0)
(-0.0352532 -0.472952 0)
(-0.0379414 -0.466452 0)
(-0.0409524 -0.461581 0)
(-0.0445984 -0.457976 0)
(-0.049135 -0.455201 0)
(-0.0548314 -0.452814 0)
(-0.0620898 -0.450403 0)
(-0.0714212 -0.447563 0)
(-0.0841302 -0.443388 0)
(-0.102016 -0.435096 0)
(-0.130281 -0.415329 0)
(-0.171884 -0.370592 0)
(-0.233601 -0.286111 0)
(-0.293538 -0.149025 0)
(-0.3199 0.00380496 0)
(-0.317348 0.126556 0)
(-0.30332 0.214519 0)
(-0.284066 0.271629 0)
(-0.262761 0.304649 0)
(-0.241222 0.320368 0)
(-0.220434 0.324432 0)
(-0.200897 0.321149 0)
(-0.182804 0.31359 0)
(-0.16619 0.303827 0)
(-0.151005 0.293181 0)
(-0.13715 0.282435 0)
(-0.124509 0.272008 0)
(-0.112963 0.262088 0)
(-0.102396 0.252728 0)
(-0.0927087 0.243907 0)
(-0.0838108 0.23557 0)
(-0.075629 0.22765 0)
(-0.0680984 0.220082 0)
(-0.0611634 0.212816 0)
(-0.00681249 -0.693717 0)
(0.0163184 -0.595367 0)
(0.0368797 -0.542881 0)
(0.0337449 -0.516536 0)
(0.0212438 -0.503361 0)
(0.00515804 -0.494612 0)
(-0.0108304 -0.486492 0)
(-0.025056 -0.479138 0)
(-0.0379907 -0.471871 0)
(-0.0494748 -0.464446 0)
(-0.0596187 -0.457533 0)
(-0.0687937 -0.451658 0)
(-0.0775007 -0.446976 0)
(-0.0862097 -0.443355 0)
(-0.0953258 -0.440489 0)
(-0.10524 -0.437971 0)
(-0.116409 -0.435295 0)
(-0.129496 -0.431785 0)
(-0.145436 -0.426423 0)
(-0.165487 -0.417536 0)
(-0.191893 -0.401361 0)
(-0.226968 -0.372064 0)
(-0.271604 -0.319381 0)
(-0.32185 -0.234045 0)
(-0.361703 -0.116296 0)
(-0.376303 0.00790805 0)
(-0.369163 0.113095 0)
(-0.350169 0.191759 0)
(-0.32537 0.244819 0)
(-0.298672 0.276982 0)
(-0.272208 0.293531 0)
(-0.247149 0.299248 0)
(-0.224006 0.29795 0)
(-0.202927 0.292436 0)
(-0.183868 0.284638 0)
(-0.166687 0.275804 0)
(-0.151199 0.266692 0)
(-0.137215 0.25772 0)
(-0.124553 0.249088 0)
(-0.113053 0.240868 0)
(-0.102574 0.233061 0)
(-0.0929984 0.225629 0)
(-0.0842314 0.218525 0)
(-0.0761902 0.211699 0)
(-0.0688049 0.205113 0)
(-0.0111082 -0.688706 0)
(-0.0092295 -0.611881 0)
(-0.000134566 -0.551586 0)
(0.000567789 -0.514293 0)
(-0.00541824 -0.492954 0)
(-0.0164679 -0.479982 0)
(-0.030186 -0.470579 0)
(-0.0448622 -0.462977 0)
(-0.0595478 -0.456132 0)
(-0.0737173 -0.449754 0)
(-0.0871803 -0.443953 0)
(-0.100073 -0.43888 0)
(-0.112709 -0.434555 0)
(-0.125458 -0.430818 0)
(-0.138709 -0.427354 0)
(-0.152901 -0.423698 0)
(-0.168566 -0.4192 0)
(-0.186412 -0.412918 0)
(-0.207355 -0.403415 0)
(-0.232397 -0.388504 0)
(-0.262552 -0.364867 0)
(-0.298345 -0.32745 0)
(-0.338221 -0.27093 0)
(-0.37656 -0.191673 0)
(-0.403198 -0.093279 0)
(-0.410659 0.00789004 0)
(-0.400952 0.0962082 0)
(-0.379959 0.164934 0)
(-0.353047 0.213584 0)
(-0.323938 0.244819 0)
(-0.294989 0.262444 0)
(-0.267536 0.270256 0)
(-0.242207 0.271454 0)
(-0.219205 0.268489 0)
(-0.198492 0.263106 0)
(-0.179906 0.256471 0)
(-0.16323 0.249313 0)
(-0.14824 0.242055 0)
(-0.134723 0.234922 0)
(-0.122491 0.228013 0)
(-0.111382 0.221356 0)
(-0.101259 0.214942 0)
(-0.092013 0.208745 0)
(-0.0835488 0.202735 0)
(-0.0757865 0.196891 0)
(-0.0180319 -0.667006 0)
(-0.0274262 -0.60985 0)
(-0.0287991 -0.55303 0)
(-0.0305279 -0.512293 0)
(-0.0351193 -0.48574 0)
(-0.0435312 -0.468522 0)
(-0.0549716 -0.456698 0)
(-0.0683633 -0.447869 0)
(-0.0827798 -0.440679 0)
(-0.0975784 -0.434459 0)
(-0.112446 -0.428949 0)
(-0.127343 -0.424033 0)
(-0.142407 -0.41956 0)
(-0.157878 -0.415274 0)
(-0.174077 -0.410791 0)
(-0.191397 -0.405568 0)
(-0.210298 -0.398843 0)
(-0.231338 -0.389541 0)
(-0.255126 -0.376115 0)
(-0.282147 -0.356434 0)
(-0.312509 -0.327766 0)
(-0.345464 -0.286939 0)
(-0.378514 -0.231224 0)
(-0.406902 -0.160265 0)
(-0.424284 -0.0784658 0)
(-0.426805 0.00409408 0)
(-0.415514 0.0776602 0)
(-0.394413 0.137053 0)
(-0.367615 0.181039 0)
(-0.338391 0.210988 0)
(-0.309038 0.229479 0)
(-0.28095 0.239338 0)
(-0.254863 0.243112 0)
(-0.231063 0.242847 0)
(-0.20957 0.24006 0)
(-0.190251 0.235805 0)
(-0.172904 0.230768 0)
(-0.157307 0.225374 0)
(-0.143246 0.219868 0)
(-0.130525 0.214378 0)
(-0.118979 0.208964 0)
(-0.108465 0.203645 0)
(-0.0988666 0.198421 0)
(-0.0900838 0.193283 0)
(-0.0820314 0.188228 0)
(-0.0189651 -0.637733 0)
(-0.0355646 -0.596377 0)
(-0.0446597 -0.546783 0)
(-0.050967 -0.506865 0)
(-0.0574338 -0.477911 0)
(-0.0658232 -0.45751 0)
(-0.0764749 -0.442995 0)
(-0.0890065 -0.432272 0)
(-0.102869 -0.423916 0)
(-0.117613 -0.417055 0)
(-0.132962 -0.411162 0)
(-0.148812 -0.405874 0)
(-0.165196 -0.400858 0)
(-0.18226 -0.395737 0)
(-0.200238 -0.390044 0)
(-0.219427 -0.383173 0)
(-0.240152 -0.374315 0)
(-0.262723 -0.362413 0)
(-0.287375 -0.346057 0)
(-0.314093 -0.323503 0)
(-0.342373 -0.292772 0)
(-0.370926 -0.252032 0)
(-0.397295 -0.200268 0)
(-0.417866 -0.138452 0)
(-0.428783 -0.0703763 0)
(-0.427951 -0.00255086 0)
(-0.416153 0.0588221 0)
(-0.396091 0.10986 0)
(-0.370826 0.149267 0)
(-0.343078 0.177634 0)
(-0.314882 0.196605 0)
(-0.287586 0.208189 0)
(-0.261969 0.214317 0)
(-0.238393 0.216624 0)
(-0.216945 0.216375 0)
(-0.197551 0.214486 0)
(-0.180054 0.211587 0)
(-0.164261 0.208089 0)
(-0.149981 0.204248 0)
(-0.137033 0.200218 0)
(-0.125259 0.196087 0)
(-0.114523 0.191902 0)
(-0.104712 0.187685 0)
(-0.0957252 0.183451 0)
(-0.0874784 0.179215 0)
(-0.0171316 -0.607643 0)
(-0.0371071 -0.576647 0)
(-0.0511439 -0.534188 0)
(-0.0616612 -0.497142 0)
(-0.0710057 -0.467954 0)
(-0.0807759 -0.445901 0)
(-0.0917821 -0.4294 0)
(-0.104137 -0.416892 0)
(-0.117702 -0.407143 0)
(-0.132271 -0.399247 0)
(-0.147678 -0.392536 0)
(-0.163829 -0.386482 0)
(-0.180726 -0.380614 0)
(-0.198454 -0.374458 0)
(-0.217167 -0.367489 0)
(-0.237035 -0.359077 0)
(-0.258225 -0.348435 0)
(-0.280833 -0.334596 0)
(-0.304787 -0.316408 0)
(-0.329715 -0.292571 0)
(-0.354811 -0.261824 0)
(-0.37868 -0.223233 0)
(-0.399251 -0.176717 0)
(-0.413968 -0.123563 0)
(-0.420489 -0.0667965 0)
(-0.4177 -0.0106807 0)
(-0.406218 0.0406775 0)
(-0.387898 0.0845121 0)
(-0.36502 0.119648 0)
(-0.339721 0.146244 0)
(-0.313719 0.165291 0)
(-0.288229 0.178156 0)
(-0.264012 0.186244 0)
(-0.241471 0.190806 0)
(-0.220757 0.192857 0)
(-0.20186 0.193166 0)
(-0.18468 0.19229 0)
(-0.169074 0.190613 0)
(-0.154885 0.188394 0)
(-0.141963 0.1858 0)
(-0.130169 0.182942 0)
(-0.119382 0.179887 0)
(-0.109499 0.176682 0)
(-0.100427 0.17336 0)
(-0.0920854 0.169951 0)
(-0.0155659 -0.578604 0)
(-0.036013 -0.55405 0)
(-0.0525547 -0.517351 0)
(-0.0660275 -0.483687 0)
(-0.0778227 -0.455511 0)
(-0.0892091 -0.433026 0)
(-0.101008 -0.415406 0)
(-0.113597 -0.401611 0)
(-0.127099 -0.390655 0)
(-0.141494 -0.381693 0)
(-0.156724 -0.374015 0)
(-0.172746 -0.367015 0)
(-0.18956 -0.360151 0)
(-0.20722 -0.352896 0)
(-0.225808 -0.344702 0)
(-0.24539 -0.334957 0)
(-0.265978 -0.322957 0)
(-0.287496 -0.307882 0)
(-0.309683 -0.288844 0)
(-0.331998 -0.26495 0)
(-0.353556 -0.235461 0)
(-0.37309 -0.200027 0)
(-0.388983 -0.158964 0)
(-0.399488 -0.113541 0)
(-0.40318 -0.066011 0)
(-0.399491 -0.0192632 0)
(-0.388905 0.0239682 0)
(-0.372736 0.0617092 0)
(-0.352654 0.0929867 0)
(-0.330301 0.117731 0)
(-0.307067 0.136501 0)
(-0.283994 0.150184 0)
(-0.261781 0.159763 0)
(-0.24084 0.166162 0)
(-0.221366 0.170166 0)
(-0.203408 0.172401 0)
(-0.186925 0.173339 0)
(-0.171826 0.17333 0)
(-0.157999 0.172619 0)
(-0.14533 0.171382 0)
(-0.133708 0.16974 0)
(-0.12303 0.167779 0)
(-0.113211 0.165561 0)
(-0.104169 0.163134 0)
(-0.0958309 0.160542 0)
(-0.0142248 -0.550933 0)
(-0.0340617 -0.530447 0)
(-0.0515855 -0.498174 0)
(-0.0667431 -0.467511 0)
(-0.0801914 -0.44082 0)
(-0.0928514 -0.418631 0)
(-0.105411 -0.400597 0)
(-0.118328 -0.386048 0)
(-0.13183 -0.374214 0)
(-0.146006 -0.364345 0)
(-0.160881 -0.355754 0)
(-0.176465 -0.347826 0)
(-0.192773 -0.339999 0)
(-0.209833 -0.331738 0)
(-0.227671 -0.322507 0)
(-0.246268 -0.311742 0)
(-0.265533 -0.298841 0)
(-0.285273 -0.283158 0)
(-0.305137 -0.264044 0)
(-0.324546 -0.240922 0)
(-0.342676 -0.213411 0)
(-0.358478 -0.181472 0)
(-0.370748 -0.145571 0)
(-0.378309 -0.106787 0)
(-0.380296 -0.0667791 0)
(-0.376424 -0.0275188 0)
(-0.367084 0.00913384 0)
(-0.353207 0.0417793 0)
(-0.336013 0.0696383 0)
(-0.316739 0.0925342 0)
(-0.296478 0.110746 0)
(-0.27609 0.124824 0)
(-0.25619 0.135429 0)
(-0.237173 0.14322 0)
(-0.219259 0.148785 0)
(-0.20254 0.152617 0)
(-0.187028 0.155106 0)
(-0.172682 0.156557 0)
(-0.159435 0.157196 0)
(-0.147209 0.157195 0)
(-0.135921 0.156679 0)
(-0.125495 0.155744 0)
(-0.115862 0.154463 0)
(-0.106956 0.152893 0)
(-0.0987133 0.151091 0)
(-0.0131168 -0.524991 0)
(-0.0319895 -0.506951 0)
(-0.0496564 -0.477972 0)
(-0.0654906 -0.449774 0)
(-0.0798494 -0.424606 0)
(-0.0932862 -0.403072 0)
(-0.106366 -0.385086 0)
(-0.1195 -0.370198 0)
(-0.132931 -0.357798 0)
(-0.146796 -0.347238 0)
(-0.161175 -0.33789 0)
(-0.176112 -0.32917 0)
(-0.19163 -0.320533 0)
(-0.207741 -0.311465 0)
(-0.22443 -0.301462 0)
(-0.241625 -0.290028 0)
(-0.259168 -0.276665 0)
(-0.276815 -0.260886 0)
(-0.294191 -0.242239 0)
(-0.31076 -0.220379 0)
(-0.325823 -0.195144 0)
(-0.338556 -0.166649 0)
(-0.348089 -0.135367 0)
(-0.353636 -0.102165 0)
(-0.354666 -0.0682472 0)
(-0.351046 -0.0349797 0)
(-0.343084 -0.00364433 0)
(-0.331443 0.024761 0)
(-0.317004 0.0496247 0)
(-0.30069 0.0707297 0)
(-0.28334 0.0881825 0)
(-0.265647 0.102302 0)
(-0.248135 0.113516 0)
(-0.231165 0.122278 0)
(-0.214964 0.129015 0)
(-0.199654 0.134105 0)
(-0.185286 0.137861 0)
(-0.171862 0.14054 0)
(-0.159352 0.142344 0)
(-0.147712 0.143433 0)
(-0.13689 0.14393 0)
(-0.126833 0.143932 0)
(-0.117491 0.143518 0)
(-0.108814 0.142753 0)
(-0.10075 0.141698 0)
(-0.0121432 -0.500382 0)
(-0.0300816 -0.484085 0)
(-0.0473765 -0.457496 0)
(-0.0632669 -0.431333 0)
(-0.0779481 -0.407579 0)
(-0.0917169 -0.386863 0)
(-0.105013 -0.369205 0)
(-0.11816 -0.354271 0)
(-0.131376 -0.341567 0)
(-0.144816 -0.330537 0)
(-0.158585 -0.320626 0)
(-0.172743 -0.3113 0)
(-0.187313 -0.302055 0)
(-0.202288 -0.292412 0)
(-0.217628 -0.281918 0)
(-0.23323 -0.270142 0)
(-0.248916 -0.256687 0)
(-0.264428 -0.241193 0)
(-0.279415 -0.223361 0)
(-0.293417 -0.202999 0)
(-0.305872 -0.180071 0)
(-0.316156 -0.154753 0)
(-0.323653 -0.127467 0)
(-0.327838 -0.0988882 0)
(-0.328381 -0.0698874 0)
(-0.32523 -0.041423 0)
(-0.318619 -0.0143923 0)
(-0.309022 0.0104875 0)
(-0.297069 0.0327408 0)
(-0.28344 0.0521477 0)
(-0.268773 0.0687124 0)
(-0.253615 0.082602 0)
(-0.238403 0.0940785 0)
(-0.223455 0.103444 0)
(-0.208993 0.111 0)
(-0.195153 0.117028 0)
(-0.182014 0.121775 0)
(-0.169606 0.12545 0)
(-0.157934 0.128226 0)
(-0.146982 0.130248 0)
(-0.136723 0.131631 0)
(-0.127125 0.132468 0)
(-0.118159 0.132839 0)
(-0.109788 0.132812 0)
(-0.101973 0.13245 0)
(-0.0113485 -0.476968 0)
(-0.0283495 -0.461976 0)
(-0.044991 -0.437167 0)
(-0.0606127 -0.412681 0)
(-0.0752041 -0.390209 0)
(-0.0889601 -0.370364 0)
(-0.102186 -0.353184 0)
(-0.115126 -0.338404 0)
(-0.127973 -0.325611 0)
(-0.14088 -0.314332 0)
(-0.153956 -0.304075 0)
(-0.167264 -0.29436 0)
(-0.180817 -0.28473 0)
(-0.194593 -0.274753 0)
(-0.208532 -0.264028 0)
(-0.222525 -0.252193 0)
(-0.236396 -0.238932 0)
(-0.249903 -0.223983 0)
(-0.262741 -0.207156 0)
(-0.274532 -0.188355 0)
(-0.284841 -0.167612 0)
(-0.293209 -0.145114 0)
(-0.299201 -0.121218 0)
(-0.302468 -0.0964375 0)
(-0.302804 -0.0714074 0)
(-0.300192 -0.0468072 0)
(-0.294809 -0.0232747 0)
(-0.286993 -0.00133194 0)
(-0.277192 0.0186523 0)
(-0.265901 0.0364747 0)
(-0.253603 0.0520834 0)
(-0.240727 0.0655482 0)
(-0.227628 0.077019 0)
(-0.214583 0.0866885 0)
(-0.201796 0.0947646 0)
(-0.189408 0.101451 0)
(-0.177511 0.106936 0)
(-0.166159 0.111388 0)
(-0.155376 0.114951 0)
(-0.145172 0.117749 0)
(-0.13554 0.119887 0)
(-0.126467 0.121453 0)
(-0.11794 0.12252 0)
(-0.109937 0.123157 0)
(-0.102427 0.123428 0)
(-0.0107621 -0.454775 0)
(-0.0267646 -0.440681 0)
(-0.0426585 -0.417326 0)
(-0.0578005 -0.394225 0)
(-0.0720422 -0.372907 0)
(-0.0855228 -0.353913 0)
(-0.0984434 -0.337276 0)
(-0.110997 -0.322776 0)
(-0.123353 -0.310065 0)
(-0.135648 -0.298731 0)
(-0.147982 -0.288336 0)
(-0.16041 -0.278446 0)
(-0.172934 -0.268645 0)
(-0.185519 -0.25855 0)
(-0.1981 -0.247814 0)
(-0.210569 -0.236136 0)
(-0.222767 -0.223266 0)
(-0.234484 -0.209017 0)
(-0.245465 -0.193271 0)
(-0.255412 -0.175991 0)
(-0.263996 -0.157241 0)
(-0.270882 -0.137197 0)
(-0.275767 -0.116148 0)
(-0.278414 -0.0944852 0)
(-0.278695 -0.0726731 0)
(-0.276607 -0.0512001 0)
(-0.272283 -0.0305273 0)
(-0.265965 -0.0110406 0)
(-0.25797 0.0069738 0)
(-0.248659 0.023336 0)
(-0.238395 0.0379688 0)
(-0.227511 0.050882 0)
(-0.216294 0.0621517 0)
(-0.20498 0.0718948 0)
(-0.19375 0.0802493 0)
(-0.182742 0.0873596 0)
(-0.172052 0.0933663 0)
(-0.161747 0.0984002 0)
(-0.151867 0.102579 0)
(-0.142438 0.106007 0)
(-0.133469 0.108775 0)
(-0.124963 0.11096 0)
(-0.11692 0.112633 0)
(-0.109328 0.113858 0)
(-0.102169 0.114696 0)
(-0.0102605 -0.433718 0)
(-0.0253047 -0.420302 0)
(-0.040441 -0.398226 0)
(-0.0549492 -0.376324 0)
(-0.0686782 -0.356045 0)
(-0.0816902 -0.337848 0)
(-0.0941383 -0.321771 0)
(-0.106184 -0.307629 0)
(-0.117969 -0.29512 0)
(-0.129606 -0.283878 0)
(-0.141176 -0.273505 0)
(-0.15272 -0.263606 0)
(-0.164236 -0.253805 0)
(-0.175684 -0.243763 0)
(-0.186998 -0.233182 0)
(-0.198079 -0.221813 0)
(-0.208792 -0.209462 0)
(-0.218962 -0.195993 0)
(-0.228384 -0.181336 0)
(-0.236825 -0.165487 0)
(-0.24404 -0.14852 0)
(-0.249787 -0.13059 0)
(-0.253852 -0.111928 0)
(-0.256076 -0.0928317 0)
(-0.256376 -0.0736438 0)
(-0.254757 -0.0547215 0)
(-0.251315 -0.0364036 0)
(-0.246226 -0.0189808 0)
(-0.239719 -0.00267733 0)
(-0.232053 0.0123526 0)
(-0.223501 0.0260239 0)
(-0.214322 0.0383132 0)
(-0.204747 0.049249 0)
(-0.19497 0.0588968 0)
(-0.185153 0.0673447 0)
(-0.175421 0.074692 0)
(-0.165871 0.0810409 0)
(-0.156574 0.0864909 0)
(-0.147582 0.0911352 0)
(-0.138928 0.095059 0)
(-0.130635 0.0983384 0)
(-0.122717 0.101042 0)
(-0.115184 0.103232 0)
(-0.108035 0.104967 0)
(-0.101257 0.106307 0)
(-0.00970889 -0.413583 0)
(-0.0239162 -0.400849 0)
(-0.0382799 -0.379921 0)
(-0.0520804 -0.359108 0)
(-0.0651899 -0.339767 0)
(-0.0776137 -0.322323 0)
(-0.0894901 -0.306817 0)
(-0.100955 -0.293091 0)
(-0.112122 -0.280872 0)
(-0.123077 -0.269826 0)
(-0.133881 -0.259593 0)
(-0.144561 -0.249809 0)
(-0.155113 -0.240138 0)
(-0.165502 -0.230278 0)
(-0.175665 -0.219975 0)
(-0.185516 -0.209024 0)
(-0.194943 -0.197269 0)
(-0.203805 -0.184614 0)
(-0.211937 -0.171015 0)
(-0.219162 -0.156485 0)
(-0.225297 -0.141098 0)
(-0.230167 -0.124985 0)
(-0.23362 -0.108328 0)
(-0.235547 -0.0913561 0)
(-0.235896 -0.074326 0)
(-0.234674 -0.0575034 0)
(-0.231954 -0.0411421 0)
(-0.227861 -0.0254647 0)
(-0.222562 -0.0106497 0)
(-0.216249 0.00317343 0)
(-0.209124 0.0159215 0)
(-0.201387 0.0275554 0)
(-0.193222 0.0380748 0)
(-0.184791 0.0475108 0)
(-0.176233 0.055916 0)
(-0.16766 0.0633562 0)
(-0.159165 0.0699037 0)
(-0.150819 0.0756321 0)
(-0.142676 0.0806135 0)
(-0.134779 0.0849155 0)
(-0.127157 0.088601 0)
(-0.119831 0.0917279 0)
(-0.112821 0.0943511 0)
(-0.10613 0.0965232 0)
(-0.0997545 0.0982998 0)
(-0.00912044 -0.394314 0)
(-0.0225518 -0.382263 0)
(-0.0361148 -0.362353 0)
(-0.0491921 -0.342538 0)
(-0.0616205 -0.324066 0)
(-0.0734018 -0.307353 0)
(-0.0846592 -0.292442 0)
(-0.0955052 -0.279186 0)
(-0.106028 -0.26733 0)
(-0.116291 -0.256566 0)
(-0.126338 -0.246563 0)
(-0.136189 -0.236992 0)
(-0.14584 -0.227551 0)
(-0.15526 -0.217974 0)
(-0.164395 -0.20804 0)
(-0.173173 -0.197578 0)
(-0.181502 -0.186463 0)
(-0.189266 -0.174621 0)
(-0.196338 -0.162025 0)
(-0.202582 -0.148697 0)
(-0.207861 -0.134702 0)
(-0.212048 -0.120149 0)
(-0.215035 -0.105184 0)
(-0.216749 -0.0899846 0)
(-0.217155 -0.0747464 0)
(-0.216262 -0.0596709 0)
(-0.214124 -0.0449516 0)
(-0.210833 -0.0307617 0)
(-0.206513 -0.0172445 0)
(-0.201306 -0.00450887 0)
(-0.195362 0.00736965 0)
(-0.188835 0.0183464 0)
(-0.181873 0.0284048 0)
(-0.174609 0.0375532 0)
(-0.16716 0.0458198 0)
(-0.159626 0.0532456 0)
(-0.152092 0.0598799 0)
(-0.144627 0.0657758 0)
(-0.137287 0.0709872 0)
(-0.130114 0.0755669 0)
(-0.123144 0.0795656 0)
(-0.116402 0.0830314 0)
(-0.109914 0.0860111 0)
(-0.103688 0.0885516 0)
(-0.0977234 0.0907031 0)
(-0.00859739 -0.376012 0)
(-0.0212252 -0.364541 0)
(-0.0339731 -0.345547 0)
(-0.0463161 -0.326645 0)
(-0.0580397 -0.309 0)
(-0.0691612 -0.293011 0)
(-0.0797787 -0.278714 0)
(-0.0899835 -0.265966 0)
(-0.0998456 -0.254525 0)
(-0.109415 -0.244103 0)
(-0.118725 -0.234397 0)
(-0.127791 -0.225112 0)
(-0.136608 -0.215975 0)
(-0.145152 -0.206749 0)
(-0.153377 -0.197244 0)
(-0.161224 -0.18731 0)
(-0.168614 -0.176845 0)
(-0.175459 -0.165791 0)
(-0.181656 -0.15413 0)
(-0.187103 -0.141885 0)
(-0.191697 -0.129113 0)
(-0.195346 -0.115906 0)
(-0.197973 -0.102379 0)
(-0.199529 -0.0886738 0)
(-0.199989 -0.0749406 0)
(-0.199365 -0.0613354 0)
(-0.197696 -0.0480083 0)
(-0.195051 -0.0350956 0)
(-0.191523 -0.0227134 0)
(-0.187217 -0.0109532 0)
(-0.182249 0.000118165 0)
(-0.176735 0.010456 0)
(-0.170794 0.0200358 0)
(-0.164535 0.0288519 0)
(-0.158056 0.0369151 0)
(-0.151446 0.044249 0)
(-0.144781 0.0508854 0)
(-0.138123 0.056861 0)
(-0.131528 0.0622154 0)
(-0.125039 0.0669888 0)
(-0.118693 0.071221 0)
(-0.112517 0.0749513 0)
(-0.106541 0.0782193 0)
(-0.100776 0.0810653 0)
(-0.0952245 0.0835345 0)
(-0.00816027 -0.358707 0)
(-0.0199588 -0.347734 0)
(-0.0319055 -0.329607 0)
(-0.0434971 -0.311558 0)
(-0.0545159 -0.29471 0)
(-0.0649696 -0.279427 0)
(-0.074934 -0.265739 0)
(-0.0844851 -0.253505 0)
(-0.093682 -0.242498 0)
(-0.102567 -0.232449 0)
(-0.111167 -0.223081 0)
(-0.119494 -0.214126 0)
(-0.127546 -0.205337 0)
(-0.1353 -0.196505 0)
(-0.14272 -0.187456 0)
(-0.149756 -0.178064 0)
(-0.156345 -0.168238 0)
(-0.162413 -0.157932 0)
(-0.167884 -0.147133 0)
(-0.172678 -0.135861 0)
(-0.176717 -0.124168 0)
(-0.179935 -0.112127 0)
(-0.182279 -0.0998353 0)
(-0.183712 -0.087402 0)
(-0.18422 -0.0749471 0)
(-0.183813 -0.0625925 0)
(-0.182522 -0.0504565 0)
(-0.180398 -0.0386477 0)
(-0.177512 -0.0272606 0)
(-0.173943 -0.0163726 0)
(-0.16978 -0.00604271 0)
(-0.165114 0.00368713 0)
(-0.160038 0.0127893 0)
(-0.154642 0.0212501 0)
(-0.14901 0.029069 0)
(-0.143216 0.0362568 0)
(-0.137329 0.0428324 0)
(-0.131406 0.0488202 0)
(-0.125498 0.0542483 0)
(-0.119647 0.0591464 0)
(-0.11389 0.0635452 0)
(-0.108255 0.0674764 0)
(-0.102774 0.0709725 0)
(-0.097459 0.0740683 0)
(-0.0923153 0.0768032 0)
(-0.00771497 -0.342318 0)
(-0.0187195 -0.331864 0)
(-0.0298986 -0.31458 0)
(-0.040743 -0.297353 0)
(-0.0510663 -0.281267 0)
(-0.0608481 -0.266659 0)
(-0.0701546 -0.253553 0)
(-0.0790523 -0.241817 0)
(-0.0875929 -0.23124 0)
(-0.0958141 -0.221575 0)
(-0.10374 -0.212566 0)
(-0.11138 -0.203966 0)
(-0.118731 -0.195553 0)
(-0.125775 -0.187134 0)
(-0.132483 -0.178555 0)
(-0.138811 -0.169701 0)
(-0.144708 -0.160492 0)
(-0.150118 -0.150889 0)
(-0.154979 -0.14088 0)
(-0.15923 -0.130485 0)
(-0.162814 -0.119746 0)
(-0.165683 -0.108726 0)
(-0.167796 -0.0975011 0)
(-0.169131 -0.0861616 0)
(-0.169678 -0.0748025 0)
(-0.169446 -0.0635208 0)
(-0.168458 -0.0524112 0)
(-0.166755 -0.0415615 0)
(-0.16439 -0.0310493 0)
(-0.161425 -0.0209402 0)
(-0.157928 -0.0112865 0)
(-0.153973 -0.00212704 0)
(-0.149631 0.00651042 0)
(-0.144977 0.0146084 0)
(-0.14008 0.0221591 0)
(-0.135006 0.0291646 0)
(-0.129813 0.0356344 0)
(-0.124554 0.0415836 0)
(-0.119273 0.0470312 0)
(-0.114013 0.0519987 0)
(-0.108806 0.0565092 0)
(-0.103683 0.0605874 0)
(-0.0986745 0.06426 0)
(-0.093795 0.0675565 0)
(-0.0890491 0.0705108 0)
(-0.00718058 -0.326811 0)
(-0.0174549 -0.3169 0)
(-0.0279003 -0.300423 0)
(-0.0380292 -0.283989 0)
(-0.047669 -0.268626 0)
(-0.0567862 -0.254654 0)
(-0.0654456 -0.242101 0)
(-0.0737069 -0.230847 0)
(-0.0816162 -0.220697 0)
(-0.0892072 -0.211423 0)
(-0.0965006 -0.202788 0)
(-0.103505 -0.194562 0)
(-0.110217 -0.186541 0)
(-0.116623 -0.178548 0)
(-0.122696 -0.17044 0)
(-0.128402 -0.162112 0)
(-0.1337 -0.153493 0)
(-0.138543 -0.144545 0)
(-0.142885 -0.135261 0)
(-0.146679 -0.125655 0)
(-0.149883 -0.115764 0)
(-0.15246 -0.105638 0)
(-0.154383 -0.0953431 0)
(-0.155634 -0.0849503 0)
(-0.156209 -0.0745371 0)
(-0.156115 -0.0641822 0)
(-0.155371 -0.0539626 0)
(-0.154009 -0.04395 0)
(-0.15207 -0.0342093 0)
(-0.149601 -0.0247962 0)
(-0.146659 -0.015757 0)
(-0.143299 -0.00712755 0)
(-0.139582 0.00106552 0)
(-0.135565 0.0088034 0)
(-0.131308 0.0160747 0)
(-0.126867 0.0228755 0)
(-0.122291 0.0292087 0)
(-0.117628 0.0350823 0)
(-0.112918 0.0405084 0)
(-0.108199 0.0455018 0)
(-0.103504 0.0500794 0)
(-0.0988608 0.0542602 0)
(-0.0942995 0.0580653 0)
(-0.0898358 0.0615201 0)
(-0.0854744 0.0646527 0)
(-0.00658869 -0.312259 0)
(-0.0161661 -0.302816 0)
(-0.0258984 -0.287079 0)
(-0.0353438 -0.271391 0)
(-0.044315 -0.256708 0)
(-0.0527894 -0.243342 0)
(-0.060828 -0.231324 0)
(-0.0684833 -0.220546 0)
(-0.0757958 -0.210828 0)
(-0.0827951 -0.201956 0)
(-0.0894993 -0.193708 0)
(-0.0959167 -0.18587 0)
(-0.102045 -0.178251 0)
(-0.107872 -0.170685 0)
(-0.113375 -0.16304 0)
(-0.118528 -0.155219 0)
(-0.123298 -0.147156 0)
(-0.127648 -0.138817 0)
(-0.131542 -0.130193 0)
(-0.134944 -0.121296 0)
(-0.137822 -0.112157 0)
(-0.140151 -0.102819 0)
(-0.141909 -0.0933353 0)
(-0.143085 -0.0837658 0)
(-0.143677 -0.074174 0)
(-0.143691 -0.0646248 0)
(-0.143143 -0.0551813 0)
(-0.142057 -0.0459034 0)
(-0.140467 -0.0368453 0)
(-0.13841 -0.0280553 0)
(-0.13593 -0.0195738 0)
(-0.133073 -0.0114339 0)
(-0.129886 -0.00366061 0)
(-0.126419 0.00372752 0)
(-0.122718 0.0107175 0)
(-0.118832 0.0173018 0)
(-0.114804 0.0234786 0)
(-0.110675 0.0292508 0)
(-0.106482 0.0346251 0)
(-0.102258 0.039611 0)
(-0.0980347 0.0442204 0)
(-0.0938377 0.0484673 0)
(-0.0896967 0.0523684 0)
(-0.0856273 0.0559449 0)
(-0.0816345 0.0592202 0)
(-0.00603579 -0.29874 0)
(-0.014905 -0.289617 0)
(-0.0239343 -0.274538 0)
(-0.0327123 -0.259531 0)
(-0.0410362 -0.245487 0)
(-0.0488983 -0.232703 0)
(-0.0563486 -0.221211 0)
(-0.0634313 -0.210911 0)
(-0.0701808 -0.20163 0)
(-0.0766235 -0.193168 0)
(-0.0827763 -0.185314 0)
(-0.0886475 -0.177868 0)
(-0.0942359 -0.170648 0)
(-0.0995316 -0.1635 0)
(-0.104518 -0.156301 0)
(-0.109173 -0.148958 0)
(-0.113471 -0.141413 0)
(-0.117384 -0.133631 0)
(-0.120883 -0.125604 0)
(-0.123942 -0.117342 0)