/*--------------------------------*- C++ -*----------------------------------*\
| =========                 |                                                 |
| \\      /  F ield         | OpenFOAM: The Open Source CFD Toolbox           |
|  \\    /   O peration     | Version:  5.0                                   |
|   \\  /    A nd           | Web:      www.OpenFOAM.org                      |
|    \\/     M anipulation  |                                                 |
\*---------------------------------------------------------------------------*/
FoamFile
{
    version     2.0;
    format      ascii;
    class       volScalarField;
    location    "0.05";
    object      k;
}
// * * * * * * * * * * * * * * * * * * * * * * * * * * * * * * * * * * * * * //

dimensions      [0 2 -2 0 0 0 0];

internalField   nonuniform List<scalar> 
1935
(
0.095704
0.0957048
0.0957053
0.0957052
0.0957039
0.0957011
0.0956964
0.0956895
0.0956802
0.0956683
0.0956539
0.0956373
0.0956188
0.0955988
0.0955779
0.0955566
0.0955354
0.0955147
0.0954948
0.095476
0.0954585
0.0954423
0.0954274
0.095414
0.0954019
0.095391
0.0953813
0.0953726
0.0953649
0.0953581
0.0953522
0.095347
0.0953425
0.0953388
0.095336
0.0953342
0.0953339
0.0953354
0.0953394
0.0953462
0.0953549
0.0953629
0.095367
0.0956567
0.0956079
0.0955609
0.0955203
0.0956552
0.0956049
0.095557
0.095516
0.0956534
0.0956018
0.0955532
0.0955118
0.0956512
0.0955984
0.0955493
0.0955077
0.095648
0.0955944
0.095545
0.0955034
0.0956438
0.0955896
0.0955402
0.0954988
0.095638
0.0955838
0.0955348
0.0954939
0.0956307
0.0955768
0.0955285
0.0954885
0.0956215
0.0955685
0.0955215
0.0954825
0.0956106
0.095559
0.0955136
0.095476
0.0955979
0.0955482
0.0955048
0.0954689
0.0955835
0.0955364
0.0954953
0.0954614
0.0955679
0.0955236
0.0954852
0.0954533
0.0955513
0.0955101
0.0954745
0.095445
0.095534
0.0954962
0.0954636
0.0954364
0.0955165
0.0954821
0.0954525
0.0954277
0.0954991
0.0954681
0.0954414
0.0954189
0.0954821
0.0954544
0.0954305
0.0954103
0.0954658
0.0954411
0.09542
0.0954019
0.0954503
0.0954285
0.0954098
0.0953937
0.0954358
0.0954166
0.0954002
0.0953859
0.0954223
0.0954055
0.0953911
0.0953785
0.0954099
0.0953953
0.0953827
0.0953715
0.0953986
0.0953858
0.0953748
0.0953649
0.0953884
0.0953772
0.0953676
0.0953588
0.0953791
0.0953693
0.0953609
0.0953532
0.0953708
0.0953622
0.0953548
0.0953479
0.0953634
0.0953558
0.0953493
0.0953431
0.0953567
0.0953501
0.0953443
0.0953388
0.0953508
0.0953449
0.0953398
0.0953348
0.0953456
0.0953403
0.0953357
0.0953312
0.0953411
0.0953363
0.0953321
0.095328
0.0953371
0.0953328
0.095329
0.0953251
0.0953338
0.0953298
0.0953262
0.0953226
0.0953312
0.0953273
0.0953239
0.0953205
0.0953293
0.0953254
0.095322
0.0953186
0.0953284
0.0953241
0.0953206
0.0953171
0.0953286
0.0953235
0.0953194
0.0953157
0.0953301
0.0953235
0.0953185
0.0953142
0.0953327
0.0953236
0.0953172
0.0953123
0.0953355
0.0953232
0.095315
0.0953092
0.0953371
0.0953213
0.0953114
0.0953047
0.0953365
0.0953185
0.0953074
0.0953003
0.0954885
0.0954665
0.0954506
0.0954371
0.0954243
0.0954114
0.0953987
0.0953864
0.0953747
0.0953637
0.0953537
0.0953445
0.0953362
0.0953287
0.095322
0.0953159
0.0953105
0.0953056
0.0953011
0.0952969
0.0952927
0.0952882
0.0952827
0.0952751
0.0952636
0.0952453
0.0952153
0.0951665
0.0950878
0.0949628
0.0947681
0.0944691
0.0940135
0.0933177
0.0922375
0.0905016
0.0875447
0.0820301
0.0701597
0.0374666
0.0954838
0.0954614
0.0954453
0.0954316
0.0954187
0.0954059
0.0953934
0.0953813
0.0953699
0.0953593
0.0953495
0.0953406
0.0953326
0.0953254
0.0953189
0.0953131
0.0953079
0.0953032
0.0952989
0.0952949
0.0952908
0.0952864
0.095281
0.0952735
0.0952621
0.0952438
0.0952139
0.0951651
0.0950864
0.0949614
0.0947667
0.0944676
0.0940119
0.0933159
0.0922355
0.0904992
0.0875416
0.082026
0.0701544
0.037467
0.0954793
0.0954566
0.0954401
0.0954263
0.0954133
0.0954006
0.0953883
0.0953765
0.0953653
0.095355
0.0953455
0.0953369
0.0953292
0.0953222
0.095316
0.0953104
0.0953054
0.0953009
0.0952968
0.0952929
0.095289
0.0952847
0.0952793
0.0952719
0.0952606
0.0952424
0.0952126
0.0951638
0.095085
0.0949601
0.0947653
0.0944661
0.0940103
0.0933142
0.0922335
0.0904967
0.0875385
0.0820218
0.0701491
0.0374669
0.0954749
0.0954519
0.0954352
0.0954211
0.0954081
0.0953955
0.0953834
0.0953718
0.0953609
0.0953508
0.0953416
0.0953333
0.0953259
0.0953192
0.0953132
0.0953078
0.095303
0.0952987
0.0952947
0.0952909
0.0952872
0.095283
0.0952778
0.0952704
0.0952592
0.095241
0.0952113
0.0951625
0.0950838
0.0949588
0.0947639
0.0944647
0.0940088
0.0933125
0.0922315
0.0904943
0.0875354
0.0820177
0.0701437
0.0374662
0.0954706
0.0954473
0.0954303
0.0954162
0.0954031
0.0953906
0.0953786
0.0953672
0.0953566
0.0953468
0.0953379
0.0953299
0.0953227
0.0953162
0.0953105
0.0953053
0.0953007
0.0952965
0.0952927
0.0952891
0.0952855
0.0952814
0.0952763
0.0952691
0.0952579
0.0952398
0.09521
0.0951613
0.0950826
0.0949576
0.0947627
0.0944634
0.0940073
0.0933109
0.0922296
0.090492
0.0875324
0.0820136
0.0701383
0.0374648
0.0954661
0.0954428
0.0954256
0.0954113
0.0953982
0.0953858
0.0953739
0.0953628
0.0953524
0.0953429
0.0953343
0.0953266
0.0953196
0.0953134
0.0953079
0.0953029
0.0952985
0.0952945
0.0952909
0.0952874
0.0952838
0.0952799
0.0952749
0.0952677
0.0952566
0.0952386
0.0952089
0.0951602
0.0950815
0.0949564
0.0947615
0.0944622
0.094006
0.0933094
0.0922278
0.0904897
0.0875294
0.0820095
0.0701329
0.0374628
0.0954615
0.0954381
0.0954208
0.0954064
0.0953934
0.095381
0.0953694
0.0953585
0.0953484
0.0953392
0.0953308
0.0953234
0.0953167
0.0953107
0.0953054
0.0953006
0.0952964
0.0952926
0.0952891
0.0952857
0.0952823
0.0952785
0.0952736
0.0952665
0.0952555
0.0952375
0.0952078
0.0951592
0.0950804
0.0949554
0.0947605
0.094461
0.0940047
0.0933079
0.0922261
0.0904875
0.0875264
0.0820055
0.0701276
0.0374602
0.0954566
0.0954334
0.095416
0.0954016
0.0953886
0.0953764
0.095365
0.0953543
0.0953445
0.0953356
0.0953275
0.0953203
0.0953138
0.0953081
0.095303
0.0952985
0.0952944
0.0952907
0.0952874
0.0952842
0.0952809
0.0952772
0.0952723
0.0952653
0.0952544
0.0952364
0.0952068
0.0951582
0.0950795
0.0949544
0.0947595
0.09446
0.0940036
0.0933066
0.0922244
0.0904854
0.0875236
0.0820015
0.0701222
0.0374571
0.0954514
0.0954284
0.0954111
0.0953967
0.0953838
0.0953718
0.0953606
0.0953502
0.0953407
0.095332
0.0953243
0.0953173
0.0953111
0.0953056
0.0953007
0.0952964
0.0952925
0.095289
0.0952858
0.0952827
0.0952795
0.0952759
0.0952712
0.0952643
0.0952534
0.0952355
0.0952059
0.0951573
0.0950786
0.0949536
0.0947586
0.094459
0.0940025
0.0933053
0.0922229
0.0904833
0.0875207
0.0819976
0.0701169
0.0374533
0.0954458
0.0954233
0.0954061
0.0953918
0.095379
0.0953672
0.0953563
0.0953462
0.095337
0.0953287
0.0953212
0.0953145
0.0953085
0.0953033
0.0952986
0.0952944
0.0952907
0.0952874
0.0952843
0.0952813
0.0952783
0.0952748
0.0952701
0.0952633
0.0952524
0.0952346
0.0952051
0.0951565
0.0950778
0.0949528
0.0947577
0.0944581
0.0940015
0.0933041
0.0922214
0.0904813
0.087518
0.0819937
0.0701117
0.0374491
0.0954399
0.0954179
0.095401
0.0953869
0.0953743
0.0953627
0.0953521
0.0953423
0.0953334
0.0953254
0.0953182
0.0953118
0.0953061
0.095301
0.0952966
0.0952926
0.095289
0.0952858
0.0952829
0.0952801
0.0952771
0.0952737
0.0952691
0.0952624
0.0952516
0.0952338
0.0952043
0.0951558
0.0950771
0.094952
0.094757
0.0944573
0.0940006
0.093303
0.0922199
0.0904793
0.0875152
0.0819898
0.0701064
0.0374444
0.0954337
0.0954124
0.0953959
0.0953819
0.0953695
0.0953583
0.0953479
0.0953385
0.0953299
0.0953222
0.0953153
0.0953092
0.0953037
0.0952989
0.0952946
0.0952908
0.0952875
0.0952844
0.0952816
0.0952789
0.095276
0.0952727
0.0952682
0.0952615
0.0952508
0.0952331
0.0952037
0.0951551
0.0950765
0.0949514
0.0947563
0.0944566
0.0939997
0.0933019
0.0922184
0.0904773
0.0875123
0.0819856
0.0701002
0.0374399
0.0954272
0.0954067
0.0953906
0.0953769
0.0953649
0.0953539
0.0953439
0.0953347
0.0953265
0.0953191
0.0953125
0.0953067
0.0953015
0.0952969
0.0952928
0.0952892
0.095286
0.0952831
0.0952804
0.0952778
0.095275
0.0952718
0.0952674
0.0952608
0.0952501
0.0952325
0.095203
0.0951545
0.0950759
0.0949508
0.0947557
0.0944559
0.0939989
0.0933008
0.092217
0.0904751
0.087509
0.0819807
0.0700935
0.037437
0.0954204
0.0954009
0.0953853
0.095372
0.0953602
0.0953496
0.0953399
0.0953311
0.0953233
0.0953162
0.0953099
0.0953043
0.0952993
0.095295
0.0952911
0.0952877
0.0952846
0.0952818
0.0952793
0.0952768
0.0952741
0.095271
0.0952666
0.0952601
0.0952495
0.0952319
0.0952025
0.095154
0.0950754
0.0949503
0.0947552
0.0944553
0.0939981
0.0932998
0.0922154
0.0904729
0.0875057
0.0819758
0.0700869
0.0374338
0.0954135
0.095395
0.0953799
0.095367
0.0953556
0.0953454
0.0953361
0.0953277
0.0953201
0.0953134
0.0953074
0.095302
0.0952973
0.0952932
0.0952895
0.0952862
0.0952833
0.0952807
0.0952782
0.0952759
0.0952733
0.0952702
0.095266
0.0952595
0.0952489
0.0952314
0.095202
0.0951536
0.0950749
0.0949499
0.0947547
0.0944547
0.0939974
0.0932987
0.0922139
0.0904707
0.0875025
0.0819712
0.0700806
0.03743
0.0954065
0.095389
0.0953746
0.0953621
0.0953511
0.0953413
0.0953323
0.0953243
0.0953171
0.0953107
0.095305
0.0952999
0.0952954
0.0952915
0.095288
0.0952849
0.0952821
0.0952796
0.0952773
0.095275
0.0952726
0.0952696
0.0952654
0.0952589
0.0952484
0.0952309
0.0952016
0.0951532
0.0950745
0.0949495
0.0947542
0.0944541
0.0939967
0.0932977
0.0922125
0.0904686
0.0874994
0.0819667
0.0700744
0.0374258
0.0953995
0.0953831
0.0953693
0.0953573
0.0953468
0.0953373
0.0953287
0.0953211
0.0953142
0.0953081
0.0953027
0.0952979
0.0952936
0.0952899
0.0952866
0.0952836
0.095281
0.0952787
0.0952764
0.0952743
0.0952719
0.0952689
0.0952648
0.0952585
0.095248
0.0952305
0.0952012
0.0951528
0.0950742
0.0949491
0.0947538
0.0944537
0.093996
0.0932969
0.0922112
0.0904666
0.0874964
0.0819624
0.0700686
0.0374212
0.0953926
0.0953772
0.0953641
0.0953526
0.0953425
0.0953334
0.0953253
0.095318
0.0953115
0.0953057
0.0953005
0.095296
0.095292
0.0952884
0.0952853
0.0952825
0.09528
0.0952778
0.0952756
0.0952736
0.0952713
0.0952684
0.0952644
0.095258
0.0952476
0.0952302
0.0952009
0.0951525
0.0950739
0.0949488
0.0947535
0.0944533
0.0939955
0.0932961
0.09221
0.0904648
0.0874937
0.0819584
0.0700631
0.0374161
0.0953857
0.0953714
0.095359
0.0953481
0.0953384
0.0953297
0.0953219
0.095315
0.0953088
0.0953034
0.0952985
0.0952942
0.0952904
0.095287
0.0952841
0.0952814
0.0952791
0.0952769
0.0952749
0.0952729
0.0952707
0.0952679
0.0952639
0.0952577
0.0952473
0.0952299
0.0952007
0.0951523
0.0950737
0.0949486
0.0947533
0.0944529
0.093995
0.0932953
0.0922089
0.0904631
0.0874911
0.0819547
0.070058
0.0374108
0.0953791
0.0953658
0.095354
0.0953436
0.0953344
0.0953261
0.0953188
0.0953122
0.0953064
0.0953012
0.0952966
0.0952925
0.0952889
0.0952858
0.0952829
0.0952804
0.0952782
0.0952762
0.0952743
0.0952724
0.0952702
0.0952675
0.0952636
0.0952573
0.095247
0.0952296
0.0952005
0.0951521
0.0950735
0.0949484
0.0947531
0.0944527
0.0939946
0.0932947
0.0922079
0.0904615
0.0874888
0.0819513
0.0700533
0.0374051
0.0953727
0.0953603
0.0953492
0.0953394
0.0953306
0.0953228
0.0953158
0.0953096
0.0953041
0.0952992
0.0952948
0.095291
0.0952876
0.0952846
0.0952819
0.0952795
0.0952774
0.0952755
0.0952737
0.0952718
0.0952698
0.0952671
0.0952632
0.0952571
0.0952468
0.0952294
0.0952003
0.095152
0.0950734
0.0949483
0.0947529
0.0944525
0.0939943
0.0932942
0.092207
0.0904601
0.0874867
0.0819482
0.070049
0.0373991
0.0953665
0.0953551
0.0953446
0.0953353
0.095327
0.0953196
0.095313
0.0953071
0.0953019
0.0952972
0.0952931
0.0952895
0.0952863
0.0952835
0.095281
0.0952787
0.0952767
0.0952749
0.0952731
0.0952714
0.0952694
0.0952668
0.0952629
0.0952568
0.0952466
0.0952293
0.0952001
0.0951518
0.0950733
0.0949482
0.0947528
0.0944523
0.093994
0.0932937
0.0922062
0.0904589
0.0874848
0.0819455
0.0700451
0.037393
0.0953607
0.0953501
0.0953403
0.0953314
0.0953235
0.0953165
0.0953103
0.0953047
0.0952998
0.0952954
0.0952916
0.0952882
0.0952851
0.0952824
0.0952801
0.095278
0.0952761
0.0952743
0.0952727
0.095271
0.095269
0.0952665
0.0952627
0.0952566
0.0952464
0.0952291
0.0952
0.0951518
0.0950732
0.0949481
0.0947527
0.0944522
0.0939938
0.0932933
0.0922055
0.0904578
0.0874831
0.081943
0.0700417
0.0373867
0.0953552
0.0953453
0.0953361
0.0953278
0.0953203
0.0953137
0.0953078
0.0953025
0.0952979
0.0952938
0.0952901
0.0952869
0.095284
0.0952815
0.0952793
0.0952773
0.0952755
0.0952738
0.0952722
0.0952706
0.0952687
0.0952662
0.0952625
0.0952564
0.0952463
0.095229
0.0951999
0.0951517
0.0950732
0.0949481
0.0947527
0.0944521
0.0939937
0.093293
0.092205
0.0904568
0.0874816
0.0819409
0.0700387
0.0373802
0.09535
0.0953409
0.0953322
0.0953243
0.0953173
0.095311
0.0953054
0.0953005
0.0952961
0.0952922
0.0952888
0.0952857
0.095283
0.0952806
0.0952785
0.0952766
0.0952749
0.0952733
0.0952718
0.0952702
0.0952684
0.095266
0.0952623
0.0952563
0.0952461
0.0952289
0.0951999
0.0951516
0.0950732
0.0949481
0.0947527
0.0944521
0.0939936
0.0932928
0.0922045
0.090456
0.0874804
0.0819392
0.0700362
0.0373737
0.0953451
0.0953367
0.0953286
0.0953211
0.0953144
0.0953085
0.0953032
0.0952986
0.0952944
0.0952908
0.0952875
0.0952847
0.0952821
0.0952798
0.0952778
0.095276
0.0952744
0.0952729
0.0952715
0.0952699
0.0952682
0.0952657
0.0952621
0.0952561
0.095246
0.0952288
0.0951998
0.0951516
0.0950731
0.0949481
0.0947527
0.0944521
0.0939936
0.0932926
0.0922042
0.0904554
0.0874794
0.0819378
0.0700342
0.0373672
0.0953406
0.0953328
0.0953251
0.0953181
0.0953118
0.0953062
0.0953012
0.0952968
0.0952929
0.0952895
0.0952864
0.0952837
0.0952813
0.0952791
0.0952772
0.0952755
0.0952739
0.0952725
0.0952711
0.0952697
0.0952679
0.0952656
0.0952619
0.095256
0.0952459
0.0952288
0.0951998
0.0951516
0.0950732
0.0949481
0.0947528
0.0944522
0.0939936
0.0932926
0.0922039
0.0904549
0.0874787
0.0819367
0.0700326
0.0373607
0.0953365
0.0953292
0.095322
0.0953153
0.0953093
0.095304
0.0952993
0.0952952
0.0952915
0.0952882
0.0952853
0.0952828
0.0952805
0.0952784
0.0952766
0.095275
0.0952735
0.0952721
0.0952708
0.0952694
0.0952677
0.0952654
0.0952618
0.0952559
0.0952458
0.0952287
0.0951997
0.0951516
0.0950732
0.0949482
0.0947528
0.0944522
0.0939936
0.0932925
0.0922038
0.0904546
0.0874781
0.081936
0.0700315
0.0373543
0.0953327
0.0953258
0.0953191
0.0953128
0.0953071
0.0953021
0.0952976
0.0952937
0.0952902
0.0952871
0.0952844
0.0952819
0.0952797
0.0952778
0.0952761
0.0952745
0.0952731
0.0952718
0.0952705
0.0952691
0.0952675
0.0952652
0.0952616
0.0952558
0.0952457
0.0952286
0.0951997
0.0951516
0.0950732
0.0949482
0.0947529
0.0944523
0.0939937
0.0932926
0.0922037
0.0904544
0.0874778
0.0819356
0.0700309
0.0373481
0.0953292
0.0953228
0.0953164
0.0953104
0.095305
0.0953003
0.095296
0.0952923
0.095289
0.0952861
0.0952835
0.0952811
0.0952791
0.0952772
0.0952756
0.0952741
0.0952727
0.0952715
0.0952703
0.0952689
0.0952673
0.095265
0.0952615
0.0952557
0.0952457
0.0952286
0.0951997
0.0951516
0.0950732
0.0949483
0.094753
0.0944525
0.0939938
0.0932927
0.0922037
0.0904543
0.0874777
0.0819356
0.0700308
0.037342
0.095326
0.09532
0.0953139
0.0953083
0.0953032
0.0952986
0.0952946
0.0952911
0.0952879
0.0952851
0.0952826
0.0952804
0.0952785
0.0952767
0.0952751
0.0952737
0.0952724
0.0952712
0.09527
0.0952687
0.0952671
0.0952649
0.0952614
0.0952556
0.0952456
0.0952285
0.0951996
0.0951516
0.0950733
0.0949484
0.0947531
0.0944526
0.093994
0.0932928
0.0922039
0.0904544
0.0874778
0.0819359
0.0700311
0.0373362
0.0953231
0.0953174
0.0953117
0.0953063
0.0953014
0.0952971
0.0952933
0.0952899
0.0952869
0.0952843
0.0952819
0.0952798
0.0952779
0.0952762
0.0952747
0.0952733
0.0952721
0.0952709
0.0952698
0.0952685
0.095267
0.0952648
0.0952613
0.0952555
0.0952455
0.0952285
0.0951996
0.0951516
0.0950733
0.0949485
0.0947533
0.0944528
0.0939942
0.0932931
0.0922041
0.0904547
0.0874782
0.0819365
0.0700318
0.0373306
0.0953206
0.0953152
0.0953097
0.0953046
0.0952999
0.0952958
0.0952921
0.0952889
0.095286
0.0952835
0.0952812
0.0952792
0.0952774
0.0952758
0.0952743
0.095273
0.0952718
0.0952707
0.0952696
0.0952684
0.0952668
0.0952646
0.0952612
0.0952554
0.0952454
0.0952284
0.0951996
0.0951516
0.0950734
0.0949486
0.0947534
0.094453
0.0939944
0.0932933
0.0922044
0.090455
0.0874787
0.0819374
0.070033
0.0373253
0.0953183
0.0953132
0.0953079
0.095303
0.0952985
0.0952946
0.0952911
0.095288
0.0952852
0.0952828
0.0952806
0.0952787
0.0952769
0.0952754
0.095274
0.0952727
0.0952716
0.0952705
0.0952694
0.0952682
0.0952667
0.0952645
0.0952611
0.0952553
0.0952454
0.0952284
0.0951996
0.0951516
0.0950734
0.0949487
0.0947536
0.0944532
0.0939947
0.0932936
0.0922047
0.0904555
0.0874794
0.0819385
0.0700346
0.0373204
0.0953163
0.0953114
0.0953063
0.0953016
0.0952973
0.0952935
0.0952901
0.0952872
0.0952845
0.0952822
0.0952801
0.0952782
0.0952765
0.095275
0.0952737
0.0952724
0.0952713
0.0952703
0.0952692
0.095268
0.0952666
0.0952644
0.095261
0.0952552
0.0952453
0.0952283
0.0951996
0.0951516
0.0950735
0.0949488
0.0947538
0.0944534
0.093995
0.093294
0.0922052
0.0904561
0.0874803
0.0819399
0.0700365
0.0373158
0.0953146
0.0953098
0.0953049
0.0953003
0.0952962
0.0952925
0.0952893
0.0952864
0.0952839
0.0952816
0.0952796
0.0952778
0.0952761
0.0952747
0.0952734
0.0952722
0.0952711
0.0952701
0.095269
0.0952679
0.0952664
0.0952643
0.0952609
0.0952551
0.0952453
0.0952283
0.0951996
0.0951517
0.0950736
0.0949489
0.0947539
0.0944537
0.0939953
0.0932944
0.0922057
0.0904567
0.0874813
0.0819415
0.0700386
0.0373116
0.095313
0.0953083
0.0953036
0.0952991
0.0952951
0.0952916
0.0952884
0.0952857
0.0952832
0.095281
0.0952791
0.0952773
0.0952758
0.0952744
0.0952731
0.0952719
0.0952709
0.0952699
0.0952689
0.0952678
0.0952663
0.0952642
0.0952608
0.0952551
0.0952452
0.0952283
0.0951996
0.0951517
0.0950736
0.0949491
0.0947541
0.0944539
0.0939956
0.0932948
0.0922062
0.0904574
0.0874823
0.0819432
0.070041
0.0373078
0.0953116
0.0953069
0.0953022
0.0952979
0.095294
0.0952906
0.0952875
0.0952849
0.0952825
0.0952804
0.0952785
0.0952769
0.0952754
0.095274
0.0952728
0.0952717
0.0952707
0.0952697
0.0952687
0.0952676
0.0952662
0.0952641
0.0952607
0.095255
0.0952452
0.0952283
0.0951996
0.0951517
0.0950737
0.0949492
0.0947543
0.0944542
0.093996
0.0932952
0.0922067
0.0904581
0.0874834
0.0819449
0.0700434
0.0373044
0.0953099
0.0953051
0.0953005
0.0952963
0.0952926
0.0952893
0.0952864
0.0952839
0.0952816
0.0952797
0.0952779
0.0952763
0.0952748
0.0952735
0.0952724
0.0952713
0.0952703
0.0952694
0.0952685
0.0952674
0.095266
0.0952639
0.0952606
0.0952549
0.0952451
0.0952282
0.0951995
0.0951518
0.0950738
0.0949493
0.0947545
0.0944545
0.0939963
0.0932956
0.0922072
0.0904587
0.0874843
0.0819464
0.0700455
0.0373012
0.0953075
0.0953028
0.0952983
0.0952942
0.0952907
0.0952876
0.0952849
0.0952825
0.0952804
0.0952786
0.0952769
0.0952754
0.0952741
0.0952729
0.0952718
0.0952708
0.0952699
0.095269
0.0952681
0.0952671
0.0952657
0.0952637
0.0952604
0.0952547
0.095245
0.0952281
0.0951995
0.0951518
0.0950738
0.0949494
0.0947547
0.0944547
0.0939966
0.0932959
0.0922075
0.0904592
0.087485
0.0819475
0.070047
0.0372981
0.0953041
0.0952993
0.095295
0.0952912
0.095288
0.0952852
0.0952827
0.0952806
0.0952787
0.0952771
0.0952756
0.0952742
0.095273
0.095272
0.095271
0.0952701
0.0952693
0.0952685
0.0952677
0.0952667
0.0952654
0.0952634
0.0952601
0.0952545
0.0952448
0.095228
0.0951994
0.0951517
0.0950738
0.0949495
0.0947548
0.0944549
0.0939968
0.0932962
0.0922078
0.0904594
0.0874851
0.0819476
0.0700467
0.0372945
0.0952993
0.0952947
0.0952907
0.0952874
0.0952845
0.095282
0.0952799
0.0952781
0.0952765
0.0952751
0.0952738
0.0952727
0.0952717
0.0952707
0.0952699
0.0952692
0.0952684
0.0952677
0.095267
0.0952661
0.0952649
0.095263
0.0952597
0.0952542
0.0952445
0.0952278
0.0951992
0.0951516
0.0950738
0.0949495
0.0947548
0.094455
0.093997
0.0932964
0.0922081
0.0904597
0.0874852
0.0819471
0.0700446
0.0372896
0.0952949
0.0952905
0.0952869
0.0952839
0.0952814
0.0952793
0.0952774
0.0952759
0.0952745
0.0952733
0.0952722
0.0952713
0.0952704
0.0952696
0.0952689
0.0952683
0.0952677
0.0952671
0.0952664
0.0952656
0.0952644
0.0952626
0.0952594
0.0952539
0.0952443
0.0952275
0.095199
0.0951514
0.0950737
0.0949494
0.0947548
0.094455
0.093997
0.0932965
0.0922082
0.0904599
0.0874858
0.0819485
0.0700474
0.0372864
)
;

boundaryField
{
    leftWall
    {
        type            kqRWallFunction;
        value           nonuniform 0();
    }
    rightWall
    {
        type            kqRWallFunction;
        value           nonuniform List<scalar> 
43
(
0.0374666
0.037467
0.0374669
0.0374662
0.0374648
0.0374628
0.0374602
0.0374571
0.0374533
0.0374491
0.0374444
0.0374399
0.037437
0.0374338
0.03743
0.0374258
0.0374212
0.0374161
0.0374108
0.0374051
0.0373991
0.037393
0.0373867
0.0373802
0.0373737
0.0373672
0.0373607
0.0373543
0.0373481
0.037342
0.0373362
0.0373306
0.0373253
0.0373204
0.0373158
0.0373116
0.0373078
0.0373044
0.0373012
0.0372981
0.0372945
0.0372896
0.0372864
)
;
    }
    lowerWall
    {
        type            kqRWallFunction;
        value           nonuniform 0();
    }
    atmosphere
    {
        type            inletOutlet;
        inletValue      uniform 0.1;
        value           nonuniform List<scalar> 
45
(
0.095367
0.0953365
0.0953185
0.0953074
0.0953003
0.0952949
0.0952905
0.0952869
0.0952839
0.0952814
0.0952793
0.0952774
0.0952759
0.0952745
0.0952733
0.0952722
0.0952713
0.0952704
0.0952696
0.0952689
0.0952683
0.0952677
0.0952671
0.0952664
0.0952656
0.0952644
0.0952626
0.0952594
0.0952539
0.0952443
0.0952275
0.095199
0.0951514
0.0950737
0.0949494
0.0947548
0.094455
0.093997
0.0932965
0.0922082
0.0904599
0.0874858
0.0819485
0.0700474
0.0372864
)
;
    }
    defaultFaces
    {
        type            empty;
    }
    procBoundary3to1
    {
        type            processor;
        value           nonuniform List<scalar> 
45
(
0.0957032
0.0956582
0.0956109
0.0955648
0.0955249
0.0954935
0.0954719
0.0954563
0.095443
0.0954301
0.0954172
0.0954043
0.0953917
0.0953796
0.0953684
0.095358
0.0953485
0.0953399
0.0953321
0.0953251
0.0953188
0.0953132
0.0953081
0.0953035
0.0952991
0.0952947
0.0952901
0.0952844
0.0952767
0.0952651
0.0952467
0.0952168
0.095168
0.0950892
0.0949643
0.0947696
0.0944707
0.0940152
0.0933195
0.0922395
0.090504
0.0875478
0.0820342
0.0701649
0.0374654
)
;
    }
    procBoundary3to2
    {
        type            processor;
        value           nonuniform List<scalar> 
43
(
0.0957488
0.095753
0.0957569
0.0957602
0.0957621
0.0957622
0.0957598
0.0957545
0.0957459
0.0957337
0.0957181
0.0956993
0.0956777
0.0956542
0.0956292
0.0956036
0.095578
0.095553
0.095529
0.0955063
0.0954853
0.0954659
0.0954483
0.0954323
0.0954179
0.0954051
0.0953937
0.0953836
0.0953747
0.0953668
0.0953599
0.095354
0.095349
0.0953449
0.0953419
0.0953403
0.0953409
0.0953445
0.0953527
0.0953665
0.0953856
0.095406
0.0954195
)
;
    }
}


// ************************************************************************* //
