/*--------------------------------*- C++ -*----------------------------------*\
| =========                 |                                                 |
| \\      /  F ield         | OpenFOAM: The Open Source CFD Toolbox           |
|  \\    /   O peration     | Version:  5.0                                   |
|   \\  /    A nd           | Web:      www.OpenFOAM.org                      |
|    \\/     M anipulation  |                                                 |
\*---------------------------------------------------------------------------*/
FoamFile
{
    version     2.0;
    format      ascii;
    class       volScalarField;
    location    "0.05";
    object      nut;
}
// * * * * * * * * * * * * * * * * * * * * * * * * * * * * * * * * * * * * * //

dimensions      [0 2 -1 0 0 0 0];

internalField   nonuniform List<scalar> 
1935
(
0.00899116
0.00899145
0.00899176
0.00899203
0.00899221
0.00899228
0.00899222
0.00899201
0.00899164
0.00899111
0.00899042
0.0089896
0.00898865
0.00898761
0.0089865
0.00898536
0.00898422
0.00898309
0.008982
0.00898097
0.00898001
0.00897912
0.0089783
0.00897756
0.0089769
0.0089763
0.00897577
0.00897529
0.00897487
0.0089745
0.00897418
0.0089739
0.00897367
0.0089735
0.00897339
0.00897337
0.00897348
0.00897377
0.00897429
0.00897503
0.0089759
0.00897671
0.00897719
0.00898891
0.00898679
0.0089848
0.00898304
0.00898903
0.00898679
0.00898473
0.00898292
0.00898918
0.00898683
0.00898468
0.00898282
0.0089893
0.00898685
0.00898464
0.00898273
0.00898936
0.00898682
0.00898455
0.00898261
0.00898932
0.00898672
0.00898442
0.00898245
0.00898918
0.00898654
0.00898422
0.00898225
0.00898892
0.00898627
0.00898395
0.008982
0.00898854
0.00898591
0.00898362
0.0089817
0.00898805
0.00898546
0.00898323
0.00898136
0.00898744
0.00898493
0.00898278
0.00898097
0.00898673
0.00898432
0.00898227
0.00898055
0.00898593
0.00898366
0.00898172
0.00898009
0.00898506
0.00898294
0.00898113
0.00897961
0.00898415
0.00898219
0.00898052
0.00897912
0.00898321
0.00898143
0.0089799
0.00897861
0.00898228
0.00898066
0.00897928
0.00897811
0.00898135
0.0089799
0.00897867
0.00897761
0.00898046
0.00897917
0.00897807
0.00897712
0.00897961
0.00897847
0.0089775
0.00897665
0.00897881
0.00897781
0.00897695
0.0089762
0.00897807
0.0089772
0.00897644
0.00897578
0.00897739
0.00897663
0.00897597
0.00897538
0.00897677
0.0089761
0.00897552
0.00897501
0.0089762
0.00897563
0.00897512
0.00897466
0.0089757
0.00897519
0.00897475
0.00897435
0.00897524
0.0089748
0.00897441
0.00897405
0.00897483
0.00897445
0.00897411
0.00897379
0.00897447
0.00897413
0.00897383
0.00897355
0.00897414
0.00897385
0.00897359
0.00897333
0.00897386
0.0089736
0.00897337
0.00897314
0.00897362
0.00897338
0.00897317
0.00897297
0.00897341
0.0089732
0.00897301
0.00897282
0.00897325
0.00897305
0.00897287
0.00897269
0.00897314
0.00897293
0.00897275
0.00897258
0.00897309
0.00897287
0.00897267
0.00897249
0.00897313
0.00897286
0.00897263
0.00897243
0.00897328
0.00897291
0.00897263
0.00897239
0.00897356
0.00897305
0.00897267
0.00897237
0.00897397
0.00897324
0.00897272
0.00897234
0.00897444
0.00897345
0.00897277
0.00897229
0.00897486
0.00897362
0.00897278
0.00897221
0.00897508
0.00897369
0.00897276
0.00897213
0.00898152
0.00898027
0.00897929
0.00897846
0.00897773
0.00897704
0.00897638
0.00897575
0.00897515
0.00897458
0.00897406
0.00897358
0.00897314
0.00897274
0.00897238
0.00897205
0.00897174
0.00897143
0.00897108
0.00897062
0.00896991
0.00896868
0.00896637
0.00896197
0.00895359
0.00893786
0.00890901
0.00885748
0.00876839
0.00861985
0.00838221
0.00801914
0.00749205
0.00676865
0.00583515
0.00471
0.00345448
0.00217414
0.00100499
0.000135041
0.00898135
0.00898008
0.00897907
0.00897824
0.0089775
0.00897681
0.00897616
0.00897554
0.00897495
0.0089744
0.0089739
0.00897343
0.00897301
0.00897263
0.00897228
0.00897196
0.00897166
0.00897136
0.00897102
0.00897057
0.00896987
0.00896863
0.00896633
0.00896192
0.00895353
0.00893778
0.00890889
0.00885731
0.00876813
0.00861947
0.00838168
0.00801843
0.00749117
0.00676762
0.00583404
0.00470892
0.00345356
0.0021735
0.00100467
0.00013504
0.00898121
0.00897991
0.00897889
0.00897804
0.00897729
0.00897661
0.00897596
0.00897536
0.00897478
0.00897425
0.00897376
0.00897331
0.0089729
0.00897253
0.0089722
0.00897189
0.0089716
0.00897131
0.00897097
0.00897053
0.00896984
0.00896861
0.0089663
0.00896189
0.00895348
0.00893772
0.00890879
0.00885715
0.00876788
0.00861909
0.00838114
0.00801772
0.00749028
0.00676658
0.00583293
0.00470784
0.00345265
0.00217285
0.00100436
0.000135037
0.00898108
0.00897975
0.00897871
0.00897785
0.0089771
0.00897642
0.00897578
0.00897518
0.00897462
0.0089741
0.00897363
0.00897319
0.0089728
0.00897244
0.00897212
0.00897182
0.00897154
0.00897126
0.00897094
0.0089705
0.00896981
0.00896858
0.00896628
0.00896186
0.00895344
0.00893765
0.00890868
0.00885698
0.00876762
0.00861872
0.00838061
0.00801701
0.00748939
0.00676555
0.00583182
0.00470677
0.00345174
0.00217222
0.00100406
0.000135032
0.00898094
0.00897959
0.00897853
0.00897766
0.00897691
0.00897623
0.0089756
0.00897501
0.00897446
0.00897396
0.00897349
0.00897307
0.00897269
0.00897235
0.00897203
0.00897175
0.00897148
0.00897121
0.00897089
0.00897046
0.00896978
0.00896855
0.00896625
0.00896183
0.0089534
0.00893759
0.00890858
0.00885682
0.00876737
0.00861835
0.00838009
0.00801632
0.00748852
0.00676453
0.00583073
0.00470572
0.00345085
0.0021716
0.00100376
0.000135026
0.00898077
0.0089794
0.00897834
0.00897746
0.00897671
0.00897603
0.00897541
0.00897483
0.0089743
0.0089738
0.00897335
0.00897294
0.00897258
0.00897225
0.00897195
0.00897167
0.00897141
0.00897114
0.00897084
0.00897042
0.00896974
0.00896852
0.00896621
0.00896179
0.00895335
0.00893751
0.00890847
0.00885665
0.00876712
0.00861798
0.00837958
0.00801563
0.00748766
0.00676353
0.00582967
0.00470469
0.00344997
0.00217099
0.00100347
0.000135018
0.00898056
0.0089792
0.00897813
0.00897725
0.0089765
0.00897583
0.00897521
0.00897464
0.00897412
0.00897364
0.00897321
0.00897281
0.00897246
0.00897214
0.00897185
0.00897158
0.00897133
0.00897108
0.00897078
0.00897036
0.00896969
0.00896847
0.00896616
0.00896174
0.00895329
0.00893743
0.00890835
0.00885648
0.00876687
0.00861762
0.00837908
0.00801497
0.00748683
0.00676256
0.00582863
0.00470368
0.00344912
0.0021704
0.00100319
0.000135009
0.00898033
0.00897897
0.0089779
0.00897703
0.00897628
0.00897561
0.00897501
0.00897445
0.00897394
0.00897348
0.00897306
0.00897268
0.00897233
0.00897203
0.00897175
0.00897149
0.00897125
0.008971
0.00897071
0.0089703
0.00896963
0.00896842
0.00896611
0.00896168
0.00895322
0.00893735
0.00890824
0.00885631
0.00876662
0.00861727
0.00837859
0.00801432
0.00748602
0.00676161
0.00582761
0.0047027
0.0034483
0.00216982
0.00100292
0.000134998
0.00898006
0.00897871
0.00897766
0.00897679
0.00897605
0.0089754
0.0089748
0.00897426
0.00897376
0.00897331
0.0089729
0.00897254
0.00897221
0.00897191
0.00897164
0.0089714
0.00897117
0.00897093
0.00897064
0.00897024
0.00896958
0.00896836
0.00896606
0.00896162
0.00895316
0.00893726
0.00890812
0.00885615
0.00876638
0.00861692
0.00837811
0.00801368
0.00748523
0.00676069
0.00582663
0.00470175
0.00344749
0.00216926
0.00100266
0.000134986
0.00897975
0.00897844
0.0089774
0.00897655
0.00897582
0.00897517
0.00897459
0.00897406
0.00897358
0.00897314
0.00897275
0.0089724
0.00897208
0.0089718
0.00897154
0.00897131
0.00897108
0.00897085
0.00897057
0.00897018
0.00896952
0.00896831
0.008966
0.00896157
0.00895309
0.00893718
0.00890801
0.00885598
0.00876615
0.00861659
0.00837764
0.00801307
0.00748446
0.00675979
0.00582566
0.00470082
0.0034467
0.00216872
0.00100241
0.000134973
0.00897942
0.00897815
0.00897713
0.00897629
0.00897558
0.00897495
0.00897438
0.00897387
0.0089734
0.00897298
0.0089726
0.00897226
0.00897196
0.00897169
0.00897144
0.00897122
0.008971
0.00897078
0.00897051
0.00897012
0.00896946
0.00896825
0.00896595
0.00896151
0.00895302
0.0089371
0.0089079
0.00885582
0.00876592
0.00861626
0.00837718
0.00801246
0.00748369
0.0067589
0.0058247
0.00469989
0.00344592
0.00216818
0.00100217
0.000134958
0.00897906
0.00897784
0.00897685
0.00897604
0.00897534
0.00897472
0.00897417
0.00897367
0.00897322
0.00897282
0.00897245
0.00897213
0.00897184
0.00897158
0.00897134
0.00897113
0.00897092
0.00897071
0.00897044
0.00897006
0.0089694
0.0089682
0.0089659
0.00896145
0.00895296
0.00893702
0.00890779
0.00885567
0.00876569
0.00861593
0.00837673
0.00801185
0.00748293
0.006758
0.00582373
0.00469892
0.00344509
0.0021676
0.00100187
0.000134945
0.00897869
0.00897751
0.00897656
0.00897577
0.0089751
0.0089745
0.00897396
0.00897348
0.00897305
0.00897266
0.00897231
0.008972
0.00897172
0.00897147
0.00897125
0.00897104
0.00897085
0.00897064
0.00897038
0.00897
0.00896935
0.00896815
0.00896585
0.0089614
0.0089529
0.00893694
0.00890768
0.00885551
0.00876546
0.0086156
0.00837627
0.00801124
0.00748215
0.00675707
0.00582269
0.00469785
0.00344411
0.00216687
0.00100152
0.000134936
0.00897829
0.00897718
0.00897627
0.00897551
0.00897485
0.00897428
0.00897376
0.0089733
0.00897288
0.00897251
0.00897217
0.00897188
0.00897161
0.00897137
0.00897116
0.00897097
0.00897078
0.00897057
0.00897032
0.00896995
0.0089693
0.00896811
0.0089658
0.00896135
0.00895284
0.00893686
0.00890757
0.00885535
0.00876523
0.00861526
0.00837579
0.00801058
0.00748131
0.00675605
0.00582156
0.00469674
0.00344314
0.00216617
0.00100119
0.000134926
0.00897789
0.00897684
0.00897597
0.00897524
0.00897461
0.00897406
0.00897356
0.00897312
0.00897272
0.00897236
0.00897204
0.00897176
0.00897151
0.00897128
0.00897108
0.00897089
0.00897071
0.00897051
0.00897027
0.0089699
0.00896926
0.00896806
0.00896576
0.0089613
0.00895278
0.00893678
0.00890745
0.00885518
0.00876498
0.0086149
0.00837529
0.00800991
0.00748046
0.00675504
0.00582045
0.00469564
0.00344219
0.00216549
0.00100087
0.000134915
0.00897748
0.00897649
0.00897568
0.00897498
0.00897438
0.00897384
0.00897337
0.00897294
0.00897256
0.00897222
0.00897192
0.00897165
0.00897141
0.00897119
0.008971
0.00897082
0.00897065
0.00897046
0.00897022
0.00896985
0.00896922
0.00896802
0.00896572
0.00896125
0.00895272
0.0089367
0.00890734
0.00885502
0.00876473
0.00861455
0.00837479
0.00800925
0.00747963
0.00675406
0.00581939
0.0046946
0.00344129
0.00216486
0.00100057
0.000134903
0.00897706
0.00897615
0.00897538
0.00897472
0.00897415
0.00897364
0.00897318
0.00897277
0.00897241
0.00897209
0.0089718
0.00897154
0.00897131
0.00897111
0.00897092
0.00897076
0.00897059
0.00897041
0.00897017
0.00896981
0.00896918
0.00896799
0.00896568
0.00896121
0.00895267
0.00893663
0.00890723
0.00885486
0.0087645
0.00861421
0.00837432
0.00800862
0.00747884
0.00675314
0.00581839
0.00469362
0.00344045
0.00216427
0.0010003
0.00013489
0.00897666
0.00897581
0.00897509
0.00897447
0.00897392
0.00897343
0.008973
0.00897261
0.00897227
0.00897196
0.00897168
0.00897144
0.00897122
0.00897103
0.00897086
0.00897069
0.00897054
0.00897036
0.00897013
0.00896977
0.00896914
0.00896795
0.00896564
0.00896117
0.00895262
0.00893656
0.00890713
0.00885471
0.00876428
0.00861389
0.00837388
0.00800804
0.0074781
0.00675228
0.00581746
0.00469271
0.00343968
0.00216374
0.00100005
0.000134875
0.00897626
0.00897548
0.00897481
0.00897422
0.0089737
0.00897324
0.00897283
0.00897246
0.00897213
0.00897184
0.00897158
0.00897135
0.00897114
0.00897096
0.00897079
0.00897064
0.00897049
0.00897032
0.00897009
0.00896974
0.00896911
0.00896792
0.00896561
0.00896114
0.00895258
0.0089365
0.00890704
0.00885457
0.00876408
0.0086136
0.00837347
0.0080075
0.00747742
0.00675149
0.00581661
0.00469189
0.00343898
0.00216325
0.00099983
0.00013486
0.00897587
0.00897516
0.00897453
0.00897398
0.00897349
0.00897305
0.00897266
0.00897231
0.008972
0.00897172
0.00897148
0.00897126
0.00897106
0.00897089
0.00897073
0.00897059
0.00897044
0.00897028
0.00897006
0.00896971
0.00896909
0.0089679
0.00896559
0.00896111
0.00895254
0.00893644
0.00890696
0.00885445
0.0087639
0.00861334
0.0083731
0.00800701
0.00747681
0.00675078
0.00581585
0.00469115
0.00343835
0.00216281
0.000999636
0.000134845
0.0089755
0.00897485
0.00897427
0.00897375
0.00897329
0.00897287
0.0089725
0.00897217
0.00897188
0.00897161
0.00897138
0.00897117
0.00897099
0.00897083
0.00897068
0.00897054
0.0089704
0.00897024
0.00897003
0.00896968
0.00896906
0.00896787
0.00896556
0.00896108
0.0089525
0.0089364
0.00890689
0.00885435
0.00876374
0.0086131
0.00837278
0.00800658
0.00747627
0.00675015
0.00581517
0.00469049
0.00343779
0.00216244
0.00099947
0.000134829
0.00897515
0.00897455
0.00897401
0.00897353
0.00897309
0.0089727
0.00897235
0.00897204
0.00897176
0.00897151
0.00897129
0.0089711
0.00897092
0.00897077
0.00897063
0.0089705
0.00897036
0.00897021
0.00897
0.00896966
0.00896904
0.00896785
0.00896554
0.00896106
0.00895247
0.00893636
0.00890683
0.00885425
0.0087636
0.0086129
0.00837249
0.0080062
0.0074758
0.0067496
0.00581459
0.00468993
0.00343732
0.00216211
0.000999332
0.000134812
0.00897481
0.00897427
0.00897377
0.00897332
0.00897291
0.00897254
0.00897221
0.00897191
0.00897165
0.00897142
0.00897121
0.00897103
0.00897086
0.00897071
0.00897058
0.00897046
0.00897033
0.00897018
0.00896997
0.00896963
0.00896902
0.00896783
0.00896553
0.00896104
0.00895245
0.00893632
0.00890678
0.00885417
0.00876348
0.00861273
0.00837225
0.00800588
0.0074754
0.00674914
0.00581409
0.00468945
0.00343692
0.00216185
0.000999222
0.000134795
0.0089745
0.00897401
0.00897354
0.00897312
0.00897274
0.00897239
0.00897208
0.0089718
0.00897155
0.00897133
0.00897113
0.00897096
0.0089708
0.00897066
0.00897054
0.00897042
0.0089703
0.00897015
0.00896995
0.00896961
0.008969
0.00896782
0.00896551
0.00896102
0.00895243
0.00893629
0.00890674
0.00885411
0.00876338
0.00861259
0.00837205
0.00800562
0.00747508
0.00674876
0.00581369
0.00468907
0.0034366
0.00216164
0.000999141
0.000134778
0.00897421
0.00897376
0.00897333
0.00897294
0.00897257
0.00897225
0.00897195
0.00897169
0.00897145
0.00897125
0.00897106
0.0089709
0.00897075
0.00897062
0.0089705
0.00897038
0.00897027
0.00897013
0.00896993
0.0089696
0.00896899
0.00896781
0.0089655
0.00896101
0.00895241
0.00893627
0.0089067
0.00885406
0.00876331
0.00861248
0.0083719
0.00800542
0.00747483
0.00674847
0.00581339
0.00468878
0.00343637
0.00216149
0.000999089
0.00013476
0.00897394
0.00897353
0.00897313
0.00897276
0.00897242
0.00897211
0.00897183
0.00897159
0.00897136
0.00897117
0.00897099
0.00897084
0.0089707
0.00897058
0.00897046
0.00897035
0.00897024
0.0089701
0.00896991
0.00896958
0.00896897
0.00896779
0.00896549
0.008961
0.0089524
0.00893625
0.00890668
0.00885402
0.00876325
0.0086124
0.00837179
0.00800527
0.00747465
0.00674827
0.00581317
0.00468858
0.00343621
0.00216139
0.000999064
0.000134743
0.00897369
0.00897331
0.00897295
0.0089726
0.00897228
0.00897199
0.00897173
0.00897149
0.00897128
0.0089711
0.00897093
0.00897079
0.00897065
0.00897054
0.00897043
0.00897032
0.00897022
0.00897008
0.00896989
0.00896957
0.00896896
0.00896778
0.00896548
0.00896099
0.00895239
0.00893624
0.00890666
0.008854
0.00876322
0.00861235
0.00837173
0.00800519
0.00747455
0.00674815
0.00581305
0.00468847
0.00343613
0.00216136
0.000999067
0.000134726
0.00897346
0.00897311
0.00897277
0.00897245
0.00897215
0.00897187
0.00897163
0.0089714
0.00897121
0.00897103
0.00897088
0.00897074
0.00897061
0.0089705
0.0089704
0.0089703
0.00897019
0.00897006
0.00896988
0.00896955
0.00896895
0.00896777
0.00896547
0.00896098
0.00895238
0.00893624
0.00890666
0.00885399
0.00876321
0.00861234
0.00837171
0.00800516
0.00747452
0.00674812
0.00581303
0.00468845
0.00343613
0.00216137
0.000999097
0.000134709
0.00897325
0.00897293
0.00897262
0.00897231
0.00897203
0.00897177
0.00897153
0.00897132
0.00897114
0.00897097
0.00897082
0.00897069
0.00897057
0.00897047
0.00897037
0.00897027
0.00897017
0.00897005
0.00896986
0.00896954
0.00896894
0.00896777
0.00896546
0.00896098
0.00895238
0.00893624
0.00890666
0.008854
0.00876322
0.00861235
0.00837173
0.00800519
0.00747455
0.00674817
0.00581309
0.00468852
0.0034362
0.00216144
0.000999152
0.000134693
0.00897306
0.00897277
0.00897247
0.00897218
0.00897192
0.00897167
0.00897145
0.00897125
0.00897107
0.00897092
0.00897078
0.00897065
0.00897054
0.00897044
0.00897034
0.00897025
0.00897015
0.00897003
0.00896985
0.00896953
0.00896893
0.00896776
0.00896546
0.00896098
0.00895238
0.00893624
0.00890667
0.00885402
0.00876325
0.0086124
0.00837179
0.00800527
0.00747466
0.0067483
0.00581323
0.00468868
0.00343635
0.00216157
0.000999233
0.000134677
0.00897289
0.00897262
0.00897234
0.00897207
0.00897182
0.00897158
0.00897137
0.00897118
0.00897102
0.00897087
0.00897073
0.00897061
0.00897051
0.00897041
0.00897032
0.00897023
0.00897014
0.00897002
0.00896983
0.00896952
0.00896892
0.00896775
0.00896546
0.00896098
0.00895239
0.00893625
0.00890669
0.00885405
0.0087633
0.00861247
0.00837189
0.00800541
0.00747483
0.00674851
0.00581347
0.00468892
0.00343657
0.00216174
0.000999337
0.000134662
0.00897274
0.00897248
0.00897222
0.00897196
0.00897172
0.0089715
0.0089713
0.00897112
0.00897096
0.00897082
0.00897069
0.00897058
0.00897048
0.00897038
0.0089703
0.00897021
0.00897012
0.00897
0.00896982
0.00896951
0.00896891
0.00896775
0.00896545
0.00896098
0.00895239
0.00893627
0.00890672
0.00885409
0.00876337
0.00861257
0.00837203
0.0080056
0.00747507
0.00674879
0.00581378
0.00468923
0.00343685
0.00216196
0.000999463
0.000134648
0.0089726
0.00897236
0.00897211
0.00897187
0.00897164
0.00897143
0.00897124
0.00897107
0.00897091
0.00897078
0.00897066
0.00897055
0.00897045
0.00897036
0.00897028
0.00897019
0.00897011
0.00896999
0.00896981
0.0089695
0.00896891
0.00896774
0.00896545
0.00896098
0.0089524
0.00893629
0.00890675
0.00885415
0.00876345
0.00861269
0.00837221
0.00800583
0.00747537
0.00674914
0.00581417
0.00468962
0.0034372
0.00216222
0.000999609
0.000134634
0.00897248
0.00897225
0.00897202
0.00897179
0.00897157
0.00897137
0.00897118
0.00897102
0.00897087
0.00897074
0.00897062
0.00897052
0.00897042
0.00897034
0.00897026
0.00897018
0.00897009
0.00896998
0.0089698
0.00896949
0.0089689
0.00896774
0.00896545
0.00896099
0.00895241
0.00893631
0.00890679
0.00885422
0.00876355
0.00861284
0.00837242
0.00800611
0.00747572
0.00674956
0.00581462
0.00469007
0.0034376
0.00216253
0.000999774
0.000134622
0.00897238
0.00897216
0.00897193
0.00897171
0.0089715
0.00897131
0.00897113
0.00897097
0.00897083
0.00897071
0.00897059
0.00897049
0.0089704
0.00897032
0.00897024
0.00897016
0.00897008
0.00896997
0.00896979
0.00896949
0.0089689
0.00896774
0.00896545
0.00896099
0.00895243
0.00893634
0.00890684
0.00885429
0.00876367
0.00861302
0.00837266
0.00800644
0.00747613
0.00675003
0.00581514
0.00469059
0.00343805
0.00216286
0.000999953
0.00013461
0.0089723
0.00897208
0.00897186
0.00897164
0.00897144
0.00897125
0.00897108
0.00897093
0.00897079
0.00897067
0.00897056
0.00897047
0.00897038
0.0089703
0.00897022
0.00897015
0.00897007
0.00896996
0.00896979
0.00896948
0.00896889
0.00896774
0.00896545
0.008961
0.00895245
0.00893637
0.00890689
0.00885438
0.0087638
0.00861321
0.00837293
0.0080068
0.00747658
0.00675056
0.00581571
0.00469115
0.00343854
0.00216322
0.00100014
0.0001346
0.00897223
0.00897201
0.00897179
0.00897157
0.00897138
0.0089712
0.00897103
0.00897089
0.00897076
0.00897064
0.00897054
0.00897044
0.00897036
0.00897028
0.00897021
0.00897014
0.00897005
0.00896995
0.00896978
0.00896947
0.00896889
0.00896773
0.00896546
0.00896101
0.00895247
0.0089364
0.00890695
0.00885447
0.00876395
0.00861342
0.00837323
0.00800719
0.00747706
0.00675112
0.00581632
0.00469175
0.00343906
0.0021636
0.00100034
0.000134591
0.00897216
0.00897193
0.00897171
0.0089715
0.00897131
0.00897114
0.00897098
0.00897084
0.00897071
0.0089706
0.0089705
0.00897041
0.00897033
0.00897026
0.00897019
0.00897012
0.00897004
0.00896994
0.00896977
0.00896947
0.00896888
0.00896773
0.00896546
0.00896102
0.00895249
0.00893644
0.00890701
0.00885457
0.0087641
0.00861365
0.00837354
0.0080076
0.00747757
0.00675171
0.00581694
0.00469235
0.00343958
0.00216397
0.00100053
0.000134582
0.0089721
0.00897185
0.00897163
0.00897142
0.00897123
0.00897107
0.00897092
0.00897078
0.00897066
0.00897056
0.00897046
0.00897038
0.0089703
0.00897023
0.00897017
0.0089701
0.00897002
0.00896992
0.00896975
0.00896945
0.00896887
0.00896773
0.00896546
0.00896103
0.0089525
0.00893648
0.00890708
0.00885468
0.00876426
0.00861388
0.00837387
0.00800802
0.00747809
0.0067523
0.00581756
0.00469294
0.00344007
0.00216432
0.00100071
0.000134574
0.00897203
0.00897175
0.00897152
0.00897131
0.00897113
0.00897097
0.00897083
0.00897071
0.0089706
0.0089705
0.00897041
0.00897033
0.00897026
0.0089702
0.00897013
0.00897007
0.00897
0.0089699
0.00896974
0.00896944
0.00896886
0.00896772
0.00896546
0.00896103
0.00895252
0.00893651
0.00890714
0.00885478
0.00876442
0.00861412
0.00837419
0.00800844
0.0074786
0.00675287
0.00581814
0.00469346
0.00344049
0.0021646
0.00100085
0.000134566
0.00897192
0.00897162
0.00897138
0.00897118
0.00897101
0.00897086
0.00897073
0.00897062
0.00897052
0.00897043
0.00897035
0.00897028
0.00897021
0.00897015
0.0089701
0.00897004
0.00896997
0.00896987
0.00896971
0.00896942
0.00896885
0.00896771
0.00896545
0.00896103
0.00895254
0.00893654
0.0089072
0.00885488
0.00876457
0.00861434
0.00837449
0.00800883
0.00747907
0.00675339
0.00581864
0.00469387
0.00344076
0.00216473
0.00100089
0.000134557
0.00897179
0.00897147
0.00897123
0.00897104
0.00897087
0.00897074
0.00897062
0.00897052
0.00897043
0.00897035
0.00897028
0.00897021
0.00897016
0.0089701
0.00897005
0.00897
0.00896994
0.00896984
0.00896969
0.0089694
0.00896883
0.0089677
0.00896544
0.00896103
0.00895254
0.00893657
0.00890724
0.00885496
0.0087647
0.00861452
0.00837475
0.00800917
0.00747948
0.00675384
0.00581908
0.00469423
0.00344096
0.00216475
0.00100082
0.000134544
0.00897168
0.00897135
0.00897111
0.00897092
0.00897077
0.00897064
0.00897054
0.00897044
0.00897036
0.00897029
0.00897022
0.00897017
0.00897011
0.00897007
0.00897002
0.00896997
0.00896991
0.00896982
0.00896967
0.00896938
0.00896882
0.00896768
0.00896544
0.00896103
0.00895255
0.00893658
0.00890727
0.008855
0.00876477
0.00861463
0.00837491
0.00800939
0.00747976
0.00675419
0.00581948
0.00469467
0.00344139
0.00216513
0.00100105
0.000134535
)
;

boundaryField
{
    leftWall
    {
        type            nutkWallFunction;
        Cmu             0.09;
        kappa           0.41;
        E               9.8;
        value           nonuniform 0();
    }
    rightWall
    {
        type            nutkWallFunction;
        Cmu             0.09;
        kappa           0.41;
        E               9.8;
        value           nonuniform List<scalar> 
43
(
1.18681e-05
1.18683e-05
1.18682e-05
1.1868e-05
1.18676e-05
1.18671e-05
1.18663e-05
1.18654e-05
1.18643e-05
1.18631e-05
1.18617e-05
1.18604e-05
1.18596e-05
1.18586e-05
1.18575e-05
1.18563e-05
1.1855e-05
1.18535e-05
1.18519e-05
1.18503e-05
1.18485e-05
1.18467e-05
1.18449e-05
1.1843e-05
1.18411e-05
1.18392e-05
1.18374e-05
1.18355e-05
1.18337e-05
1.18319e-05
1.18302e-05
1.18286e-05
1.1827e-05
1.18256e-05
1.18243e-05
1.18231e-05
1.18219e-05
1.18209e-05
1.182e-05
1.18191e-05
1.18181e-05
1.18166e-05
1.18157e-05
)
;
    }
    lowerWall
    {
        type            nutkWallFunction;
        Cmu             0.09;
        kappa           0.41;
        E               9.8;
        value           nonuniform 0();
    }
    atmosphere
    {
        type            calculated;
        value           nonuniform List<scalar> 
45
(
0.00897719
0.00897508
0.00897369
0.00897276
0.00897213
0.00897168
0.00897135
0.00897111
0.00897092
0.00897077
0.00897064
0.00897054
0.00897044
0.00897036
0.00897029
0.00897022
0.00897017
0.00897011
0.00897007
0.00897002
0.00896997
0.00896991
0.00896982
0.00896967
0.00896938
0.00896882
0.00896768
0.00896544
0.00896103
0.00895255
0.00893658
0.00890727
0.008855
0.00876477
0.00861463
0.00837491
0.00800939
0.00747976
0.00675419
0.00581948
0.00469467
0.00344139
0.00216513
0.00100105
0.000134535
)
;
    }
    defaultFaces
    {
        type            empty;
    }
    procBoundary3to1
    {
        type            processor;
        value           nonuniform List<scalar> 
45
(
0.00899106
0.00898894
0.0089869
0.00898498
0.00898327
0.00898177
0.00898055
0.00897958
0.00897877
0.00897803
0.00897733
0.00897666
0.00897602
0.0089754
0.00897483
0.00897429
0.00897379
0.00897334
0.00897292
0.00897255
0.0089722
0.00897188
0.00897156
0.0089712
0.00897073
0.00897002
0.00896878
0.00896646
0.00896206
0.00895369
0.00893798
0.00890916
0.00885769
0.00876867
0.00862024
0.00838274
0.00801983
0.00749291
0.00676965
0.00583623
0.00471105
0.00345538
0.00217479
0.0010053
0.000135041
)
;
    }
    procBoundary3to2
    {
        type            processor;
        value           nonuniform List<scalar> 
43
(
0.00899369
0.00899417
0.00899467
0.00899513
0.0089955
0.00899574
0.00899581
0.00899569
0.00899536
0.00899482
0.00899407
0.00899311
0.00899199
0.00899074
0.0089894
0.008988
0.0089866
0.00898522
0.00898389
0.00898264
0.00898148
0.0089804
0.00897943
0.00897855
0.00897775
0.00897705
0.00897642
0.00897587
0.00897538
0.00897496
0.00897459
0.00897427
0.00897401
0.00897383
0.00897373
0.00897375
0.00897397
0.00897447
0.00897532
0.00897655
0.00897805
0.00897947
0.00898034
)
;
    }
}


// ************************************************************************* //
