/*--------------------------------*- C++ -*----------------------------------*\
| =========                 |                                                 |
| \\      /  F ield         | OpenFOAM: The Open Source CFD Toolbox           |
|  \\    /   O peration     | Version:  5.0                                   |
|   \\  /    A nd           | Web:      www.OpenFOAM.org                      |
|    \\/     M anipulation  |                                                 |
\*---------------------------------------------------------------------------*/
FoamFile
{
    version     2.0;
    format      ascii;
    class       volScalarField;
    location    "0.05";
    object      p_rgh;
}
// * * * * * * * * * * * * * * * * * * * * * * * * * * * * * * * * * * * * * //

dimensions      [1 -1 -2 0 0 0 0];

internalField   nonuniform List<scalar> 
1935
(
0.673794
0.641644
0.609788
0.57822
0.546988
0.516165
0.485831
0.456076
0.426997
0.398687
0.371231
0.344706
0.319178
0.294699
0.271307
0.249028
0.22788
0.207869
0.188992
0.171241
0.154602
0.139055
0.124576
0.111139
0.0987227
0.0873056
0.0768614
0.0673586
0.0587616
0.0510303
0.0441179
0.0379678
0.0325143
0.0276859
0.0234087
0.0196096
0.0162184
0.0131699
0.0104046
0.00786805
0.00549266
0.00316218
0.000922604
0.672205
0.670512
0.668645
0.666628
0.641159
0.640468
0.639564
0.638467
0.610374
0.610669
0.6107
0.61049
0.579865
0.581127
0.58207
0.582721
0.549669
0.551876
0.553709
0.5552
0.519847
0.522969
0.525665
0.527972
0.490473
0.494475
0.498001
0.501091
0.461627
0.466465
0.470781
0.47462
0.433394
0.439014
0.444074
0.448621
0.405857
0.412198
0.417949
0.423155
0.379095
0.386088
0.392469
0.398285
0.353177
0.360749
0.367698
0.374067
0.328164
0.336239
0.34369
0.350555
0.304108
0.31261
0.320496
0.327796
0.281049
0.289902
0.298156
0.305831
0.259018
0.268149
0.276705
0.284694
0.238036
0.247376
0.256169
0.264412
0.218118
0.227599
0.236567
0.245006
0.199265
0.208827
0.217912
0.22649
0.181477
0.191061
0.200207
0.208872
0.164744
0.174298
0.183453
0.192152
0.149055
0.158528
0.167642
0.176328
0.13439
0.143739
0.152766
0.161391
0.12073
0.129913
0.138809
0.147328
0.108053
0.117031
0.125754
0.134121
0.096339
0.105072
0.113578
0.121749
0.0855627
0.0940099
0.102255
0.110182
0.0756942
0.0838147
0.0917534
0.099389
0.0666979
0.0744492
0.0820344
0.0893303
0.0585316
0.06587
0.0730545
0.0799631
0.0511463
0.0580278
0.0647656
0.071242
0.0444856
0.0508681
0.0571165
0.0631205
0.0384869
0.044333
0.0500556
0.0555536
0.0330841
0.038364
0.0435325
0.0484994
0.0282108
0.0329042
0.0374999
0.04192
0.0238031
0.0278997
0.0319145
0.0357811
0.0198006
0.0233006
0.0267355
0.0300501
0.0161471
0.0190594
0.0219232
0.0246935
0.0127901
0.0151294
0.0174359
0.0196738
0.00967914
0.0114631
0.0132287
0.0149475
0.00674673
0.007992
0.0092314
0.0104421
0.00386024
0.00457198
0.0052909
0.00600027
0.00110002
0.00130719
0.00153073
0.0017611
0.664394
0.661893
0.659161
0.656176
0.652947
0.649501
0.645891
0.64219
0.638473
0.634806
0.631236
0.627788
0.624459
0.621234
0.618084
0.614981
0.611904
0.608838
0.605782
0.602744
0.599739
0.596789
0.593918
0.591149
0.588504
0.585999
0.583649
0.581466
0.579458
0.577637
0.576012
0.574598
0.573409
0.572455
0.571746
0.571275
0.57102
0.570942
0.570981
0.571055
0.637145
0.635546
0.633688
0.631559
0.629171
0.626553
0.623752
0.620831
0.617857
0.614888
0.611968
0.609117
0.606338
0.603617
0.600933
0.598265
0.595597
0.592919
0.590235
0.587555
0.584896
0.582279
0.579728
0.577265
0.574908
0.572676
0.570582
0.568637
0.56685
0.56523
0.563788
0.562534
0.56148
0.560639
0.560017
0.559607
0.559391
0.55933
0.559371
0.55944
0.610041
0.609303
0.60828
0.606973
0.6054
0.603587
0.601578
0.599425
0.597184
0.594903
0.592618
0.59035
0.588103
0.58587
0.583637
0.58139
0.57912
0.576823
0.574505
0.572179
0.569864
0.567579
0.565347
0.563188
0.561122
0.559164
0.557326
0.555618
0.554051
0.552631
0.551368
0.550271
0.549353
0.548622
0.548085
0.547737
0.547558
0.547514
0.547556
0.54762
0.583119
0.583216
0.583002
0.582493
0.581707
0.580673
0.579427
0.578014
0.57648
0.574863
0.573196
0.571497
0.569772
0.568018
0.566229
0.564397
0.562519
0.560597
0.558639
0.556662
0.554683
0.552723
0.550805
0.548946
0.547166
0.545477
0.543893
0.542421
0.54107
0.539847
0.538761
0.53782
0.537034
0.536413
0.535961
0.535672
0.53553
0.535503
0.535547
0.535606
0.556423
0.557331
0.557905
0.558168
0.558144
0.557858
0.557344
0.556639
0.555782
0.554804
0.553734
0.552587
0.551371
0.550089
0.548737
0.547315
0.545823
0.544269
0.542665
0.541028
0.539379
0.537737
0.536124
0.53456
0.533059
0.531635
0.530299
0.529058
0.52792
0.526892
0.525979
0.525191
0.524536
0.524022
0.523653
0.523424
0.523319
0.523307
0.523353
0.523407
0.529996
0.531693
0.53303
0.534042
0.53475
0.535182
0.535368
0.53534
0.53513
0.534765
0.534268
0.533656
0.532936
0.532114
0.53119
0.530169
0.529056
0.527863
0.526605
0.5253
0.523972
0.52264
0.521326
0.520047
0.518819
0.517653
0.51656
0.515545
0.514616
0.513777
0.513034
0.512396
0.511869
0.51146
0.511173
0.511002
0.510932
0.510937
0.510984
0.511033
0.503888
0.506346
0.50842
0.510152
0.511565
0.512685
0.51354
0.514157
0.514564
0.514784
0.514838
0.51474
0.5145
0.514124
0.513617
0.512987
0.512243
0.511401
0.510479
0.509498
0.508482
0.507451
0.506427
0.505426
0.504463
0.503549
0.502692
0.501897
0.50117
0.500515
0.499939
0.499446
0.499043
0.498737
0.49853
0.498416
0.49838
0.498401
0.498449
0.498493
0.478155
0.48134
0.484119
0.486539
0.488626
0.490404
0.491896
0.493128
0.494123
0.494902
0.495482
0.495877
0.496097
0.496151
0.496046
0.495793
0.495407
0.494905
0.49431
0.493643
0.49293
0.492191
0.491448
0.490716
0.49001
0.489339
0.488709
0.488127
0.487596
0.487121
0.486704
0.486353
0.486072
0.485865
0.485735
0.485675
0.485673
0.485708
0.485757
0.485797
0.452854
0.456731
0.460178
0.463253
0.465979
0.468378
0.470474
0.472289
0.473842
0.475152
0.476233
0.477099
0.477759
0.478224
0.478504
0.478615
0.478573
0.478399
0.478119
0.477756
0.477334
0.476878
0.476405
0.475934
0.475475
0.475037
0.474628
0.474251
0.473909
0.473605
0.473344
0.473129
0.472964
0.472854
0.472797
0.472791
0.472821
0.47287
0.47292
0.472954
0.428044
0.432571
0.436649
0.44034
0.443667
0.446652
0.449316
0.45168
0.453759
0.45557
0.457126
0.458437
0.459515
0.460372
0.46102
0.461477
0.461765
0.461906
0.461928
0.461856
0.461716
0.46153
0.461318
0.461095
0.460873
0.46066
0.460462
0.460281
0.46012
0.459982
0.459869
0.459785
0.459732
0.459714
0.459729
0.459772
0.459833
0.459896
0.459946
0.459976
0.403782
0.408914
0.41358
0.417847
0.421736
0.425268
0.428463
0.431339
0.433911
0.436191
0.438191
0.439922
0.441394
0.44262
0.443617
0.444404
0.445005
0.445447
0.445758
0.445964
0.446093
0.446166
0.446203
0.446218
0.446222
0.446223
0.446226
0.446232
0.446244
0.446263
0.446293
0.446333
0.446387
0.446456
0.446539
0.446631
0.446721
0.446796
0.446847
0.446872
0.380121
0.38581
0.391019
0.395818
0.400227
0.404266
0.407954
0.411306
0.414334
0.41705
0.419463
0.421584
0.423423
0.424995
0.426319
0.427417
0.428315
0.429042
0.429627
0.430099
0.430483
0.430802
0.431076
0.431317
0.431536
0.431741
0.431933
0.432117
0.432293
0.432463
0.432626
0.432785
0.43294
0.433093
0.43324
0.433376
0.433494
0.433581
0.433632
0.433654
0.357111
0.363306
0.36901
0.374296
0.379182
0.383686
0.387826
0.391614
0.395063
0.398179
0.400972
0.403452
0.40563
0.407523
0.409151
0.410539
0.411715
0.412709
0.413553
0.414275
0.414901
0.415454
0.415952
0.416407
0.41683
0.417226
0.417599
0.417951
0.418281
0.418591
0.418882
0.419152
0.419403
0.419633
0.419841
0.42002
0.420163
0.420261
0.420313
0.420331
0.334799
0.341445
0.347595
0.35332
0.358638
0.363563
0.368113
0.372298
0.376128
0.379608
0.382747
0.385554
0.388041
0.390227
0.392134
0.39379
0.395223
0.396467
0.397553
0.39851
0.399364
0.400137
0.400846
0.401503
0.402118
0.402694
0.403236
0.403744
0.404219
0.404662
0.40507
0.405445
0.405785
0.406089
0.406353
0.406572
0.406739
0.406848
0.406899
0.406913
0.313222
0.320266
0.326809
0.332925
0.338627
0.34393
0.348847
0.353388
0.357558
0.361364
0.364812
0.367912
0.370678
0.373129
0.37529
0.377189
0.37886
0.380334
0.381645
0.38282
0.383887
0.384866
0.385772
0.386618
0.387411
0.388156
0.388855
0.38951
0.390119
0.390684
0.391203
0.391674
0.392097
0.392469
0.392786
0.393043
0.393232
0.39335
0.393401
0.393412
0.292415
0.2998
0.306685
0.313142
0.319181
0.324816
0.330055
0.334908
0.339378
0.34347
0.34719
0.350548
0.353559
0.356246
0.358634
0.360755
0.362641
0.364326
0.365843
0.367222
0.368486
0.369655
0.370745
0.371765
0.372724
0.373624
0.374469
0.375258
0.375992
0.37667
0.37729
0.377851
0.37835
0.378785
0.379151
0.379441
0.379651
0.379778
0.379829
0.379836
0.272405
0.280076
0.28725
0.293997
0.300326
0.306245
0.311762
0.316882
0.321609
0.325946
0.329898
0.333479
0.336703
0.339596
0.342185
0.344502
0.346582
0.348459
0.350165
0.351729
0.353174
0.354519
0.355777
0.356958
0.358069
0.359112
0.36009
0.361002
0.361849
0.36263
0.363343
0.363985
0.364554
0.365047
0.365457
0.365779
0.366007
0.366142
0.366193
0.366196
0.253215
0.261116
0.268526
0.275513
0.282082
0.288237
0.293985
0.299327
0.304267
0.308807
0.312953
0.316719
0.320124
0.323193
0.325956
0.328447
0.330699
0.332748
0.334624
0.336356
0.337966
0.33947
0.340882
0.342209
0.343458
0.344631
0.345729
0.346753
0.347702
0.348576
0.349372
0.350088
0.35072
0.351264
0.351714
0.352064
0.352309
0.352451
0.352501
0.352501
0.234859
0.242936
0.250529
0.257705
0.264464
0.270807
0.276738
0.282257
0.287365
0.292065
0.296366
0.300282
0.303835
0.307051
0.309962
0.312601
0.315005
0.317206
0.319234
0.321117
0.322874
0.324522
0.326072
0.327531
0.328903
0.330192
0.331398
0.332521
0.333562
0.334518
0.335388
0.33617
0.336858
0.337447
0.337932
0.338307
0.338567
0.338714
0.338764
0.338761
0.217347
0.225546
0.233271
0.240585
0.247483
0.253965
0.26003
0.265679
0.27091
0.275729
0.280146
0.284177
0.287845
0.291179
0.294212
0.296978
0.299511
0.301845
0.304007
0.306023
0.307911
0.309687
0.311359
0.312934
0.314415
0.315806
0.317107
0.318318
0.319438
0.320467
0.321402
0.32224
0.322976
0.323605
0.32412
0.324516
0.324788
0.32494
0.32499
0.324984
0.200681
0.20895
0.216756
0.224157
0.231145
0.237715
0.243867
0.249597
0.254908
0.259804
0.264298
0.268409
0.272162
0.275587
0.278717
0.281587
0.284229
0.286676
0.288953
0.291085
0.293087
0.294974
0.296752
0.298428
0.300004
0.301483
0.302866
0.304151
0.30534
0.30643
0.30742
0.308306
0.309084
0.309746
0.310286
0.3107
0.310982
0.311138
0.311187
0.311178
0.184861
0.193149
0.200984
0.20842
0.215447
0.222056
0.228245
0.234012
0.239358
0.244292
0.248827
0.252985
0.256793
0.260282
0.263486
0.266437
0.269168
0.271709
0.274083
0.276313
0.278413
0.280393
0.282262
0.284023
0.28568
0.287233
0.288683
0.290031
0.291276
0.292417
0.293452
0.294378
0.295188
0.295877
0.296438
0.296865
0.297156
0.297314
0.297362
0.297351
0.169879
0.178135
0.185948
0.193369
0.200384
0.206983
0.213161
0.218918
0.224258
0.229191
0.233732
0.237907
0.241742
0.24527
0.248524
0.251536
0.254337
0.256952
0.259406
0.261716
0.263896
0.265954
0.267897
0.269728
0.271449
0.273062
0.274567
0.275965
0.277254
0.278435
0.279506
0.280461
0.281297
0.282007
0.282583
0.283021
0.283317
0.283477
0.283524
0.28351
0.155723
0.163896
0.171637
0.178992
0.185944
0.192482
0.198603
0.204308
0.209601
0.214497
0.219013
0.223175
0.227012
0.230556
0.233839
0.236892
0.239742
0.242415
0.24493
0.247303
0.249545
0.251664
0.253664
0.255549
0.25732
0.258978
0.260524
0.261958
0.263281
0.264491
0.265586
0.266563
0.267417
0.268141
0.268728
0.269172
0.269471
0.269632
0.269677
0.269662
0.142375
0.150416
0.158034
0.165271
0.17211
0.17854
0.184559
0.190169
0.19538
0.200205
0.204666
0.208789
0.212605
0.216143
0.219435
0.22251
0.225392
0.228103
0.230661
0.23308
0.235367
0.237529
0.239571
0.241493
0.243298
0.244987
0.24656
0.248018
0.249361
0.250589
0.251699
0.252689
0.253553
0.254285
0.254877
0.255324
0.255624
0.255784
0.255828
0.255811
0.129813
0.13767
0.145113
0.152183
0.158861
0.165137
0.171012
0.17649
0.181583
0.186308
0.190688
0.19475
0.198522
0.202035
0.205318
0.208395
0.21129
0.214023
0.216606
0.219051
0.221366
0.223555
0.22562
0.227564
0.229387
0.231092
0.232678
0.234147
0.235499
0.236733
0.237849
0.238843
0.23971
0.240443
0.241036
0.241482
0.241781
0.24194
0.241982
0.241963
0.118008
0.12563
0.132849
0.139701
0.146172
0.152252
0.157944
0.163256
0.168202
0.172801
0.177077
0.181055
0.184765
0.188234
0.191489
0.194552
0.197442
0.200177
0.202767
0.205221
0.207545
0.209742
0.211814
0.213763
0.215589
0.217295
0.21888
0.220347
0.221696
0.222928
0.224039
0.225029
0.225891
0.22662
0.227208
0.22765
0.227945
0.228101
0.228141
0.228122
0.106925
0.114262
0.121208
0.127797
0.134018
0.139863
0.145338
0.150455
0.155228
0.159678
0.163828
0.167705
0.171335
0.174743
0.177951
0.180981
0.183849
0.186567
0.189145
0.19159
0.193904
0.196092
0.198154
0.200091
0.201905
0.203597
0.205169
0.206621
0.207956
0.209173
0.210271
0.211248
0.212098
0.212816
0.213395
0.21383
0.21412
0.214271
0.214309
0.214289
0.0965279
0.103531
0.110157
0.116441
0.122373
0.12795
0.133179
0.138074
0.142652
0.146933
0.150941
0.154699
0.158231
0.16156
0.164706
0.167685
0.170511
0.173194
0.175741
0.178157
0.180443
0.182603
0.184638
0.186547
0.188334
0.189998
0.191542
0.192968
0.194277
0.19547
0.196545
0.197501
0.198333
0.199035
0.1996
0.200024
0.200306
0.200453
0.200488
0.200467
0.0867748
0.0933989
0.0996637
0.105605
0.111215
0.116495
0.121453
0.126105
0.130469
0.134564
0.138412
0.142035
0.145454
0.148687
0.151752
0.154662
0.157427
0.160056
0.162552
0.164919
0.167159
0.169273
0.171263
0.173129
0.174872
0.176495
0.177999
0.179386
0.180658
0.181817
0.182861
0.183788
0.184595
0.185275
0.185823
0.186233
0.186505
0.186646
0.186679
0.186657
0.0776244
0.0838287
0.0896963
0.0952629
0.100524
0.105482
0.110149
0.114541
0.118674
0.122568
0.126241
0.129713
0.133001
0.136121
0.139087
0.141908
0.144593
0.147146
0.149572
0.151871
0.154046
0.156097
0.158025
0.159831
0.161516
0.163084
0.164534
0.165872
0.167097
0.168212
0.169216
0.170108
0.170883
0.171536
0.172062
0.172456
0.172716
0.17285
0.172881
0.17286
0.0690358
0.0747863
0.0802268
0.0853929
0.0902829
0.0949015
0.0992612
0.103377
0.107265
0.110942
0.114425
0.11773
0.12087
0.123859
0.126706
0.129418
0.132002
0.134459
0.136794
0.139006
0.141096
0.143066
0.144915
0.146646
0.148259
0.149758
0.151143
0.152419
0.153588
0.15465
0.155607
0.156456
0.157194
0.157816
0.158317
0.158691
0.158938
0.159066
0.159094
0.159073
0.0609715
0.0662413
0.0712317
0.075978
0.0804804
0.0847446
0.0887831
0.0926099
0.0962394
0.0996858
0.102963
0.106083
0.109057
0.111894
0.114601
0.117184
0.119645
0.121986
0.124209
0.126313
0.128301
0.130171
0.131926
0.133566
0.135093
0.13651
0.137819
0.139023
0.140125
0.141127
0.142029
0.142829
0.143525
0.144112
0.144584
0.144936
0.14517
0.145289
0.145315
0.145294
0.0533977
0.0581678
0.0626922
0.0670049
0.0711073
0.0750057
0.0787114
0.0822368
0.0855939
0.0887941
0.091848
0.0947649
0.0975527
0.100218
0.102764
0.105194
0.107511
0.109714
0.111804
0.113782
0.115648
0.117402
0.119046
0.12058
0.122008
0.123331
0.124552
0.125676
0.126703
0.127636
0.128477
0.129223
0.129871
0.130419
0.130859
0.131189
0.131406
0.131517
0.131541
0.131521
0.0462852
0.050544
0.0545924
0.0584624
0.0621561
0.0656791
0.0690412
0.0722526
0.0753228
0.0782603
0.0810727
0.0837665
0.0863467
0.0888168
0.0911791
0.0934349
0.0955846
0.0976283
0.0995659
0.101398
0.103124
0.104745
0.106262
0.107677
0.108993
0.110211
0.111334
0.112367
0.113312
0.11417
0.114943
0.115629
0.116227
0.116731
0.117138
0.117442
0.117644
0.117746
0.117768
0.117748
0.0396075
0.0433501
0.0469176
0.0503394
0.0536175
0.0567563
0.059764
0.0626481
0.0654156
0.0680724
0.0706235
0.0730727
0.0754226
0.0776748
0.0798299
0.081888
0.0838486
0.0857114
0.0874762
0.089143
0.0907121
0.0921843
0.0935609
0.0948437
0.0960348
0.0971372
0.0981538
0.0990879
0.0999423
0.100719
0.101419
0.102041
0.102584
0.103043
0.103413
0.103692
0.103876
0.10397
0.103989
0.10397
0.033339
0.0365653
0.0396506
0.0426208
0.0454772
0.0482233
0.0508648
0.0534071
0.0558549
0.0582118
0.0604804
0.0626624
0.0647587
0.0667694
0.0686939
0.0705314
0.0722812
0.0739425
0.0755152
0.0769993
0.078395
0.0797034
0.0809258
0.0820639
0.0831202
0.0840972
0.0849982
0.0858261
0.0865838
0.0872731
0.0878952
0.0884495
0.0889339
0.089345
0.0896784
0.0899299
0.0900971
0.0901824
0.0901995
0.0901819
0.0274507
0.0301641
0.0327676
0.0352836
0.0377127
0.0400566
0.0423195
0.0445046
0.0466147
0.0486514
0.0506158
0.0525078
0.0543273
0.0560731
0.0577442
0.0593393
0.0608575
0.062298
0.0636607
0.0649454
0.0661528
0.0672838
0.0683396
0.0693221
0.0702336
0.0710767
0.0718542
0.0725691
0.073224
0.073821
0.0743609
0.0748436
0.0752672
0.0756287
0.0759239
0.0761483
0.0762987
0.076376
0.0763914
0.0763751
0.0219079
0.024113
0.0262361
0.0282954
0.0302907
0.0322227
0.0340938
0.0359059
0.03766
0.0393565
0.0409951
0.0425752
0.0440954
0.0455545
0.046951
0.0482835
0.0495511
0.0507532
0.0518895
0.0529602
0.0539658
0.0549071
0.0557855
0.0566026
0.0573606
0.0580618
0.058709
0.0593048
0.0598516
0.0603514
0.0608052
0.061213
0.0615736
0.0618842
0.062141
0.062339
0.0624736
0.0625438
0.062558
0.0625433
0.0166678
0.0183695
0.020013
0.0216127
0.0231677
0.0246778
0.0261443
0.0275678
0.0289484
0.0302857
0.0315789
0.0328267
0.0340277
0.0351804
0.0362834
0.0373356
0.038336
0.0392843
0.0401803
0.041024
0.0418161
0.0425574
0.0432489
0.0438921
0.044489
0.0450416
0.0455523
0.0460234
0.0464572
0.0468555
0.0472196
0.0475498
0.0478454
0.0481045
0.0483234
0.0484962
0.0486167
0.0486807
0.0486938
0.0486803
0.0116533
0.0128527
0.0140153
0.0151508
0.0162579
0.0173359
0.0183851
0.0194055
0.0203966
0.0213578
0.022288
0.023186
0.0240504
0.02488
0.0256737
0.0264307
0.0271502
0.027832
0.0284759
0.0290822
0.0296512
0.0301836
0.0306804
0.0311427
0.031572
0.0319701
0.0323389
0.0326803
0.0329965
0.0332894
0.0335607
0.0338116
0.0340427
0.0342533
0.0344402
0.0345968
0.0347132
0.0347793
0.0347946
0.0347822
0.00671195
0.00740756
0.00808262
0.008746
0.0093955
0.01003
0.0106494
0.011253
0.0118405
0.0124109
0.0129634
0.013497
0.0140109
0.0145043
0.0149762
0.0154264
0.0158542
0.0162597
0.0166427
0.0170034
0.017342
0.0176591
0.0179552
0.0182311
0.0184878
0.0187267
0.0189491
0.0191567
0.0193515
0.0195358
0.0197124
0.0198844
0.0200551
0.0202268
0.0203986
0.0205636
0.0207066
0.0208057
0.0208464
0.0208459
0.00199576
0.00221287
0.00242319
0.00263376
0.00284281
0.00304903
0.00325184
0.00345073
0.00364518
0.00383469
0.0040188
0.00419706
0.00436906
0.00453445
0.00469295
0.00484433
0.00498847
0.00512529
0.00525479
0.00537701
0.00549209
0.00560021
0.00570164
0.00579676
0.00588602
0.00597002
0.00604944
0.00612511
0.00619796
0.00626903
0.00633953
0.00641079
0.00648408
0.00656036
0.00663942
0.00671876
0.00679215
0.00684939
0.00688057
0.0068879
)
;

boundaryField
{
    leftWall
    {
        type            fixedFluxPressure;
        gradient        nonuniform 0();
        value           nonuniform 0();
    }
    rightWall
    {
        type            fixedFluxPressure;
        gradient        uniform 0;
        value           nonuniform List<scalar> 
43
(
0.571055
0.55944
0.54762
0.535606
0.523407
0.511033
0.498493
0.485797
0.472954
0.459976
0.446872
0.433654
0.420331
0.406913
0.393412
0.379836
0.366196
0.352501
0.338761
0.324984
0.311178
0.297351
0.28351
0.269662
0.255811
0.241963
0.228122
0.214289
0.200467
0.186657
0.17286
0.159073
0.145294
0.131521
0.117748
0.10397
0.0901819
0.0763751
0.0625433
0.0486803
0.0347822
0.0208459
0.0068879
)
;
    }
    lowerWall
    {
        type            fixedFluxPressure;
        gradient        nonuniform 0();
        value           nonuniform 0();
    }
    atmosphere
    {
        type            totalPressure;
        rho             rho;
        psi             none;
        gamma           1;
        p0              uniform 0;
        value           uniform 0;
    }
    defaultFaces
    {
        type            empty;
    }
    procBoundary3to1
    {
        type            processor;
        value           nonuniform List<scalar> 
45
(
0.706285
0.703556
0.70081
0.697942
0.694953
0.691749
0.688289
0.684631
0.680748
0.676649
0.672364
0.667947
0.663471
0.659014
0.654645
0.650416
0.646352
0.642451
0.638695
0.635052
0.631493
0.627989
0.624524
0.621091
0.617695
0.614351
0.611078
0.607898
0.604832
0.601901
0.599124
0.596516
0.594092
0.591863
0.589839
0.588034
0.58646
0.585132
0.584064
0.583265
0.582729
0.582436
0.58234
0.582378
0.582456
)
;
    }
    procBoundary3to2
    {
        type            processor;
        value           nonuniform List<scalar> 
43
(
0.675327
0.641935
0.608872
0.576125
0.543734
0.511789
0.480387
0.44963
0.419621
0.390467
0.362266
0.335106
0.309052
0.284156
0.260457
0.237976
0.21672
0.196687
0.177867
0.16024
0.14378
0.128461
0.114254
0.101132
0.0890625
0.0780148
0.0679607
0.0588719
0.0507155
0.0434512
0.0370309
0.0313981
0.0264882
0.0222293
0.0185449
0.0153551
0.012581
0.0101476
0.00798698
0.00603971
0.00423827
0.00248195
0.000778238
)
;
    }
}


// ************************************************************************* //
