/*--------------------------------*- C++ -*----------------------------------*\
| =========                 |                                                 |
| \\      /  F ield         | OpenFOAM: The Open Source CFD Toolbox           |
|  \\    /   O peration     | Version:  5.0                                   |
|   \\  /    A nd           | Web:      www.OpenFOAM.org                      |
|    \\/     M anipulation  |                                                 |
\*---------------------------------------------------------------------------*/
FoamFile
{
    version     2.0;
    format      ascii;
    class       surfaceScalarField;
    location    "0.05";
    object      phi;
}
// * * * * * * * * * * * * * * * * * * * * * * * * * * * * * * * * * * * * * //

dimensions      [0 3 -1 0 0 0 0];

internalField   nonuniform List<scalar> 
3782
(
1.13801e-05
1.03014e-06
1.12671e-05
5.75974e-07
1.11272e-05
1.1451e-07
1.09591e-05
-3.52133e-07
1.07614e-05
-8.21022e-07
1.05336e-05
-1.28847e-06
1.02753e-05
-1.75032e-06
9.98712e-06
-2.20198e-06
9.67057e-06
-2.63858e-06
9.32795e-06
-3.05515e-06
8.96233e-06
-3.44687e-06
8.57747e-06
-3.80929e-06
8.17765e-06
-4.1385e-06
7.76746e-06
-4.43135e-06
7.35151e-06
-4.68555e-06
6.93431e-06
-4.89968e-06
6.52005e-06
-5.07313e-06
6.1125e-06
-5.2061e-06
5.71493e-06
-5.2994e-06
5.33008e-06
-5.35442e-06
4.96015e-06
-5.37289e-06
4.60685e-06
-5.3569e-06
4.27139e-06
-5.30866e-06
3.9545e-06
-5.23047e-06
3.65664e-06
-5.12457e-06
3.37796e-06
-4.99312e-06
3.11842e-06
-4.83821e-06
2.87773e-06
-4.66178e-06
2.65545e-06
-4.4656e-06
2.45108e-06
-4.25122e-06
2.26405e-06
-4.01997e-06
2.0938e-06
-3.773e-06
1.93972e-06
-3.51127e-06
1.80124e-06
-3.23556e-06
1.67786e-06
-2.94643e-06
1.56917e-06
-2.6443e-06
1.47486e-06
-2.32955e-06
1.39482e-06
-2.00297e-06
1.32918e-06
-1.66668e-06
1.27823e-06
-1.32651e-06
1.24225e-06
-9.96736e-07
1.22049e-06
-7.08519e-07
-5.24726e-07
1.10797e-06
1.03143e-05
1.17944e-06
9.93395e-06
1.24458e-06
9.61245e-06
9.35315e-06
1.30335e-06
6.75552e-07
1.02147e-05
7.6761e-07
9.84189e-06
8.52149e-07
9.5279e-06
9.27592e-06
9.29374e-07
2.37365e-07
1.00919e-05
3.51086e-07
9.72818e-06
4.55917e-07
9.42308e-06
9.1795e-06
5.52331e-07
-2.0479e-07
9.94455e-06
-6.84126e-08
9.59181e-06
5.75218e-08
9.29715e-06
9.06328e-06
1.73752e-07
-6.48289e-07
9.77181e-06
-4.88583e-07
9.43211e-06
-3.41028e-07
9.1496e-06
8.92684e-06
-2.04588e-07
-1.08987e-06
9.57321e-06
-9.06535e-07
9.24877e-06
-7.3719e-07
8.98026e-06
8.7701e-06
-5.80452e-07
-1.52585e-06
9.34875e-06
-1.31898e-06
9.0419e-06
-1.12801e-06
8.78929e-06
8.59328e-06
-9.51199e-07
-1.95222e-06
9.09897e-06
-1.72238e-06
8.81207e-06
-1.51035e-06
8.57726e-06
8.39693e-06
-1.314e-06
-2.36473e-06
8.82511e-06
-2.11302e-06
8.56036e-06
-1.88091e-06
8.34516e-06
8.18196e-06
-1.66594e-06
-2.75908e-06
8.52903e-06
-2.48712e-06
8.2884e-06
-2.23637e-06
8.09442e-06
7.94965e-06
-2.00405e-06
-3.13105e-06
8.21323e-06
-2.84098e-06
7.99832e-06
-2.57345e-06
7.8269e-06
7.70161e-06
-2.32541e-06
-3.47673e-06
7.88069e-06
-3.17112e-06
7.69271e-06
-2.88903e-06
7.54481e-06
7.43981e-06
-2.62723e-06
-3.79263e-06
7.53483e-06
-3.4744e-06
7.37448e-06
-3.18029e-06
7.2507e-06
7.16647e-06
-2.90694e-06
-4.07585e-06
7.17933e-06
-3.74817e-06
7.04679e-06
-3.44478e-06
6.9473e-06
6.88399e-06
-3.16229e-06
-4.32418e-06
6.81795e-06
-3.99031e-06
6.71292e-06
-3.68049e-06
6.63748e-06
6.5949e-06
-3.3914e-06
-4.53612e-06
6.45439e-06
-4.19931e-06
6.3761e-06
-3.88593e-06
6.32411e-06
6.30176e-06
-3.59278e-06
-4.7109e-06
6.09215e-06
-4.37425e-06
6.03945e-06
-4.0601e-06
6.00995e-06
6.00706e-06
-3.76541e-06
-4.84839e-06
5.73444e-06
-4.51481e-06
5.70586e-06
-4.20252e-06
5.69765e-06
5.71321e-06
-3.90867e-06
-4.94907e-06
5.38411e-06
-4.62117e-06
5.37796e-06
-4.31313e-06
5.38961e-06
5.42244e-06
-4.02237e-06
-5.01389e-06
5.04359e-06
-4.69396e-06
5.05803e-06
-4.39233e-06
5.08799e-06
5.13676e-06
-4.10666e-06
-5.04421e-06
4.71489e-06
-4.73418e-06
4.74801e-06
-4.44082e-06
4.79463e-06
4.85796e-06
-4.16202e-06
-5.04164e-06
4.39964e-06
-4.74313e-06
4.4495e-06
-4.45961e-06
4.51112e-06
4.58758e-06
-4.18922e-06
-5.00805e-06
4.09906e-06
-4.72229e-06
4.16375e-06
-4.44989e-06
4.23873e-06
4.32689e-06
-4.1892e-06
-4.94536e-06
3.81398e-06
-4.67331e-06
3.89172e-06
-4.41303e-06
3.97846e-06
4.07696e-06
-4.16308e-06
-4.85553e-06
3.54498e-06
-4.59785e-06
3.63407e-06
-4.35045e-06
3.73107e-06
3.83859e-06
-4.11208e-06
-4.74047e-06
3.29235e-06
-4.49762e-06
3.39123e-06
-4.26364e-06
3.49711e-06
3.61242e-06
-4.03746e-06
-4.60205e-06
3.0562e-06
-4.37425e-06
3.16343e-06
-4.15404e-06
3.2769e-06
3.39888e-06
-3.9405e-06
-4.44202e-06
2.83644e-06
-4.22934e-06
2.95074e-06
-4.02308e-06
3.07065e-06
3.19827e-06
-3.82247e-06
-4.26201e-06
2.63285e-06
-4.06435e-06
2.75308e-06
-3.87211e-06
2.8784e-06
3.01075e-06
-3.6846e-06
-4.06346e-06
2.44511e-06
-3.88067e-06
2.57028e-06
-3.70239e-06
2.70012e-06
2.83638e-06
-3.52804e-06
-3.84767e-06
2.27284e-06
-3.6795e-06
2.4021e-06
-3.51507e-06
2.53567e-06
2.67515e-06
-3.35387e-06
-3.61577e-06
2.11562e-06
-3.46194e-06
2.24826e-06
-3.31118e-06
2.38489e-06
2.527e-06
-3.16306e-06
-3.36869e-06
1.97304e-06
-3.2289e-06
2.10845e-06
-3.09162e-06
2.24759e-06
2.39183e-06
-2.95647e-06
-3.10721e-06
1.84468e-06
-2.98116e-06
1.98238e-06
-2.85716e-06
2.12356e-06
2.26953e-06
-2.73489e-06
-2.83194e-06
1.73018e-06
-2.71936e-06
1.86978e-06
-2.60847e-06
2.01265e-06
2.16e-06
-2.49896e-06
-2.54337e-06
1.62924e-06
-2.44406e-06
1.77045e-06
-2.34613e-06
1.9147e-06
2.06319e-06
-2.24932e-06
-2.24201e-06
1.54169e-06
-2.15583e-06
1.68426e-06
-2.07079e-06
1.82966e-06
1.97906e-06
-1.98667e-06
-1.92875e-06
1.46745e-06
-1.85569e-06
1.6112e-06
-1.78356e-06
1.75753e-06
1.90764e-06
-1.71215e-06
-1.60587e-06
1.40663e-06
-1.546e-06
1.55132e-06
-1.48684e-06
1.69837e-06
1.84901e-06
-1.4282e-06
-1.27925e-06
1.35937e-06
-1.23262e-06
1.50469e-06
-1.18644e-06
1.65218e-06
1.80312e-06
-1.14056e-06
-9.62916e-07
1.32555e-06
-9.29234e-07
1.47101e-06
-8.95644e-07
1.61859e-06
1.76956e-06
-8.62086e-07
-6.87112e-07
1.30414e-06
-6.65125e-07
1.44902e-06
-6.42913e-07
1.59638e-06
1.74721e-06
-6.2057e-07
-5.11727e-07
-4.97555e-07
-4.82946e-07
-4.68174e-07
1.36166e-06
1.02003e-05
1.41193e-06
9.92738e-06
1.454e-06
9.63405e-06
1.48795e-06
9.33155e-06
1.51396e-06
9.02918e-06
1.53233e-06
8.7332e-06
1.54345e-06
8.44736e-06
1.54774e-06
8.17366e-06
1.54567e-06
7.9129e-06
1.53767e-06
7.66523e-06
1.52419e-06
7.43043e-06
1.50564e-06
7.20813e-06
1.48247e-06
6.99789e-06
1.45508e-06
6.79922e-06
1.42385e-06
6.61166e-06
1.38916e-06
6.43471e-06
1.35135e-06
6.26792e-06
1.31074e-06
6.11084e-06
1.26761e-06
5.96305e-06
1.22222e-06
5.82412e-06
1.1748e-06
5.69367e-06
1.12555e-06
5.57137e-06
1.07466e-06
5.45695e-06
1.02228e-06
5.35021e-06
9.68557e-07
5.2511e-06
9.13607e-07
5.15989e-06
8.57515e-07
5.07731e-06
8.00335e-07
5.00494e-06
7.42072e-07
4.9457e-06
6.82675e-07
4.90442e-06
6.22034e-07
4.88849e-06
5.59977e-07
4.90833e-06
4.96283e-07
4.97751e-06
4.30711e-07
5.11245e-06
3.63061e-07
5.33131e-06
2.9326e-07
5.65174e-06
2.2148e-07
6.08561e-06
1.48218e-07
6.62604e-06
7.40747e-08
7.21612e-06
7.59736e-06
1.0074e-06
1.01223e-05
1.07654e-06
9.85824e-06
1.13665e-06
9.57393e-06
1.18781e-06
9.28038e-06
1.23025e-06
8.98674e-06
1.26431e-06
8.69915e-06
1.29039e-06
8.42129e-06
1.30894e-06
8.15511e-06
1.32045e-06
7.90139e-06
1.32538e-06
7.66028e-06
1.32423e-06
7.43157e-06
1.31744e-06
7.21491e-06
1.30547e-06
7.00985e-06
1.28875e-06
6.81593e-06
1.26768e-06
6.63271e-06
1.24265e-06
6.45972e-06
1.21401e-06
6.29654e-06
1.1821e-06
6.14274e-06
1.14721e-06
5.99791e-06
1.10963e-06
5.86168e-06
1.06961e-06
5.73369e-06
1.02739e-06
5.61362e-06
9.83163e-07
5.5012e-06
9.37116e-07
5.39628e-06
8.89407e-07
5.29883e-06
8.40174e-07
5.20912e-06
7.89529e-07
5.12793e-06
7.37551e-07
5.05688e-06
6.8428e-07
4.99893e-06
6.29702e-07
4.95897e-06
5.73748e-07
4.94442e-06
5.16295e-07
4.96577e-06
4.57184e-07
5.03662e-06
3.9625e-07
5.17339e-06
3.33388e-07
5.39417e-06
2.68634e-07
5.71649e-06
2.02277e-07
6.15196e-06
1.34923e-07
6.69338e-06
6.72302e-08
7.28378e-06
7.66456e-06
6.50695e-07
1.00239e-05
7.39152e-07
9.76978e-06
8.17612e-07
9.49546e-06
8.862e-07
9.21178e-06
9.45201e-07
8.92773e-06
9.95006e-07
8.64933e-06
1.03607e-06
8.38022e-06
1.06888e-06
8.12229e-06
1.09396e-06
7.8763e-06
1.11181e-06
7.64241e-06
1.12296e-06
7.42042e-06
1.12788e-06
7.20998e-06
1.12707e-06
7.01066e-06
1.12096e-06
6.82204e-06
1.11e-06
6.64367e-06
1.09457e-06
6.47514e-06
1.07506e-06
6.31604e-06
1.05182e-06
6.16596e-06
1.02517e-06
6.02454e-06
9.95415e-07
5.89141e-06
9.62824e-07
5.76626e-06
9.27656e-07
5.64878e-06
8.90137e-07
5.53873e-06
8.50469e-07
5.43596e-06
8.08835e-07
5.34047e-06
7.65392e-07
5.25256e-06
7.20275e-07
5.17303e-06
6.73591e-07
5.10354e-06
6.25406e-07
5.04709e-06
5.75742e-07
5.0086e-06
5.24573e-07
4.99557e-06
4.71824e-07
5.01851e-06
4.17399e-07
5.09105e-06
3.61214e-07
5.22957e-06
3.03256e-07
5.45213e-06
2.43671e-07
5.77607e-06
1.82859e-07
6.21276e-06
1.21518e-07
6.7547e-06
6.03577e-08
7.3449e-06
7.7249e-06
2.92985e-07
9.90471e-06
4.01117e-07
9.66164e-06
4.98149e-07
9.39842e-06
5.84288e-07
9.12563e-06
6.59896e-07
8.85211e-06
7.2544e-07
8.58378e-06
7.81443e-07
8.32421e-06
8.28455e-07
8.07526e-06
8.67036e-07
7.83771e-06
8.97742e-07
7.6117e-06
9.21114e-07
7.39705e-06
9.37677e-07
7.19342e-06
9.47932e-07
7.00041e-06
9.52357e-07
6.81761e-06
9.51407e-07
6.64462e-06
9.45509e-07
6.48103e-06
9.35063e-07
6.32647e-06
9.20441e-07
6.18057e-06
9.01988e-07
6.04297e-06
8.80026e-07
5.91336e-06
8.54854e-07
5.79142e-06
8.26744e-07
5.67689e-06
7.95946e-07
5.56953e-06
7.62682e-07
5.46922e-06
7.27156e-07
5.37599e-06
6.89548e-07
5.29016e-06
6.50015e-07
5.21255e-06
6.08687e-07
5.14485e-06
5.6566e-07
5.09009e-06
5.20986e-07
5.05325e-06
4.74678e-07
5.04187e-06
4.26713e-07
5.06647e-06
3.77058e-07
5.1407e-06
3.25704e-07
5.28093e-06
2.72735e-07
5.5051e-06
2.184e-07
5.83041e-06
1.63208e-07
6.26794e-06
1.07954e-07
6.80993e-06
5.33947e-08
7.39942e-06
7.77827e-06
-6.41606e-08
9.76428e-06
6.38699e-08
9.5336e-06
1.79603e-07
9.28268e-06
2.8334e-07
9.02189e-06
3.75543e-07
8.7599e-06
4.56767e-07
8.50254e-06
5.2761e-07
8.25335e-06
5.88695e-07
8.01416e-06
6.40639e-07
7.78576e-06
6.84044e-07
7.56829e-06
7.19491e-07
7.3616e-06
7.47539e-07
7.16537e-06
7.68721e-07
6.97922e-06
7.83548e-07
6.80278e-06
7.92499e-07
6.63566e-06
7.96026e-07
6.47749e-06
7.94553e-07
6.32793e-06
7.88474e-07
6.18663e-06
7.78156e-07
6.05328e-06
7.63943e-07
5.92757e-06
7.46153e-07
5.80921e-06
7.25077e-07
5.69796e-06
7.00985e-07
5.59362e-06
6.74123e-07
5.49608e-06
6.44712e-07
5.40539e-06
6.12956e-07
5.32189e-06
5.79035e-07
5.24644e-06
5.431e-07
5.18076e-06
5.05273e-07
5.1279e-06
4.65638e-07
5.09287e-06
4.24245e-07
5.08325e-06
3.8112e-07
5.10959e-06
3.36293e-07
5.18553e-06
2.89831e-07
5.32739e-06
2.41907e-07
5.55303e-06
1.92875e-07
5.87944e-06
1.4335e-07
6.31746e-06
9.42285e-08
6.85903e-06
4.63245e-08
7.44729e-06
7.82457e-06
-4.18793e-07
9.60261e-06
-2.70883e-07
9.38568e-06
-1.3651e-07
9.1483e-06
-1.52617e-08
8.90064e-06
9.34167e-08
8.65122e-06
1.90165e-07
8.40579e-06
2.75669e-07
8.16784e-06
3.50629e-07
7.9392e-06
4.15728e-07
7.72065e-06
4.71619e-07
7.51239e-06
5.18932e-07
7.31428e-06
5.58265e-07
7.12602e-06
5.90188e-07
6.94728e-06
6.15242e-07
6.77771e-06
6.33936e-07
6.61695e-06
6.46746e-07
6.46467e-06
6.54119e-07
6.32055e-06
6.56472e-07
6.18428e-06
6.54193e-07
6.05555e-06
6.47646e-07
5.93411e-06
6.37168e-07
5.81968e-06
6.23071e-07
5.71205e-06
6.05644e-07
5.61104e-06
5.85152e-07
5.51656e-06
5.6184e-07
5.42868e-06
5.3593e-07
5.34778e-06
5.07624e-07
5.27473e-06
4.77095e-07
5.21127e-06
4.44488e-07
5.16049e-06
4.09917e-07
5.12744e-06
3.7347e-07
5.11969e-06
3.35221e-07
5.14783e-06
2.95259e-07
5.22549e-06
2.53728e-07
5.36893e-06
2.10888e-07
5.59587e-06
1.67193e-07
5.92313e-06
1.23368e-07
6.36127e-06
8.04071e-08
6.90197e-06
3.91975e-08
7.48847e-06
7.86376e-06
-7.68596e-07
9.42e-06
-6.01115e-07
9.2182e-06
-4.48414e-07
8.9956e-06
-3.09963e-07
8.76218e-06
-1.8511e-07
8.52636e-06
-7.31253e-08
8.2938e-06
2.67635e-08
8.06794e-06
1.15324e-07
7.85063e-06
1.93298e-07
7.64267e-06
2.61402e-07
7.44428e-06
3.20316e-07
7.25535e-06
3.70682e-07
7.07563e-06
4.13109e-07
6.90484e-06
4.48171e-07
6.74263e-06
4.76404e-07
6.58871e-06
4.98311e-07
6.44276e-06
5.14364e-07
6.3045e-06
5.24998e-07
6.17364e-06
5.30625e-07
6.04992e-06
5.31627e-07
5.9331e-06
5.28361e-07
5.82293e-06
5.21157e-07
5.71923e-06
5.10325e-07
5.62185e-06
4.96148e-07
5.53071e-06
4.7889e-07
5.44592e-06
4.58795e-07
5.36786e-06
4.36083e-07
5.29743e-06
4.10947e-07
5.2364e-06
3.83556e-07
5.18788e-06
3.54053e-07
5.15694e-06
3.2256e-07
5.15118e-06
2.89202e-07
5.18119e-06
2.54124e-07
5.26057e-06
2.17544e-07
5.40551e-06
1.79809e-07
5.6336e-06
1.41471e-07
5.96146e-06
1.03359e-07
6.39938e-06
6.65706e-08
6.93874e-06
3.20638e-08
7.52295e-06
7.89581e-06
-1.11105e-06
9.21705e-06
-9.24578e-07
9.03173e-06
-7.54108e-07
8.82513e-06
-5.98995e-07
8.60707e-06
-4.58476e-07
8.38584e-06
-3.31721e-07
8.16704e-06
-2.17878e-07
7.95409e-06
-1.16117e-07
7.74886e-06
-2.56312e-08
7.55218e-06
5.43463e-08
7.36429e-06
1.2454e-07
7.18514e-06
1.85635e-07
7.01452e-06
2.38279e-07
6.85218e-06
2.83081e-07
6.69782e-06
3.20605e-07
6.55118e-06
3.51381e-07
6.41199e-06
3.75903e-07
6.27998e-06
3.9463e-07
6.15491e-06
4.07993e-07
6.03655e-06
4.16393e-07
5.92468e-06
4.20205e-07
5.8191e-06
4.1978e-07
5.71964e-06
4.15442e-07
5.62616e-06
4.07496e-07
5.53863e-06
3.96223e-07
5.45717e-06
3.81885e-07
5.38218e-06
3.64719e-07
5.31459e-06
3.44939e-07
5.25618e-06
3.22735e-07
5.21008e-06
2.98279e-07
5.1814e-06
2.71729e-07
5.17773e-06
2.43255e-07
5.20967e-06
2.1306e-07
5.29077e-06
1.81433e-07
5.43713e-06
1.48806e-07
5.66623e-06
1.15824e-07
5.99445e-06
8.34207e-08
6.43177e-06
5.27901e-08
6.96936e-06
2.49619e-08
7.55076e-06
7.92076e-06
-1.44357e-06
8.99468e-06
-1.23896e-06
8.82712e-06
-1.05152e-06
8.63769e-06
-8.80478e-07
8.43603e-06
-7.24977e-07
8.23033e-06
-5.84092e-07
8.02615e-06
-4.56892e-07
7.82689e-06
-3.42471e-07
7.63443e-06
-2.39964e-07
7.44966e-06
-1.48557e-07
7.27287e-06
-6.74857e-08
7.10406e-06
3.97392e-09
6.94305e-06
6.65001e-08
6.78964e-06
1.20727e-07
6.64359e-06
1.67248e-07
6.50466e-06
2.06621e-07
6.37261e-06
2.39363e-07
6.24723e-06
2.65954e-07
6.12831e-06
2.86846e-07
6.01565e-06
3.02459e-07
5.90905e-06
3.13186e-07
5.80835e-06
3.19392e-07
5.7134e-06
3.21421e-07
5.6241e-06
3.19593e-07
5.54043e-06
3.14206e-07
5.46253e-06
3.05539e-07
5.39083e-06
2.93845e-07
5.32627e-06
2.79358e-07
5.27066e-06
2.6229e-07
5.22715e-06
2.42838e-07
5.20085e-06
2.21198e-07
5.19938e-06
1.97581e-07
5.23329e-06
1.72248e-07
5.3161e-06
1.45556e-07
5.46383e-06
1.18017e-07
5.69378e-06
9.03689e-08
6.02209e-06
6.36442e-08
6.4585e-06
3.91295e-08
6.99386e-06
1.79229e-08
7.57195e-06
7.93867e-06
-1.76353e-06
8.75416e-06
-1.54194e-06
8.60553e-06
-1.33855e-06
8.43431e-06
-1.15253e-06
8.25e-06
-9.82904e-07
8.0607e-06
-8.28675e-07
7.87191e-06
-6.88839e-07
7.68705e-06
-5.62423e-07
7.50801e-06
-4.48509e-07
7.33575e-06
-3.46233e-07
7.1706e-06
-2.54788e-07
7.01261e-06
-1.7342e-07
6.86168e-06
-1.01425e-07
6.71764e-06
-3.81459e-08
6.5803e-06
1.7035e-08
6.44947e-06
6.46941e-08
6.32495e-06
1.05368e-07
6.20655e-06
1.3956e-07
6.09411e-06
1.67741e-07
5.98745e-06
1.9035e-07
5.88642e-06
2.07793e-07
5.79088e-06
2.20454e-07
5.70071e-06
2.2869e-07
5.61583e-06
2.32838e-07
5.53625e-06
2.33211e-07
5.46213e-06
2.30101e-07
5.39392e-06
2.23781e-07
5.33258e-06
2.14499e-07
5.27994e-06
2.0249e-07
5.23916e-06
1.87977e-07
5.21537e-06
1.7119e-07
5.21617e-06
1.52383e-07
5.2521e-06
1.31869e-07
5.33662e-06
1.10071e-07
5.48564e-06
8.75789e-08
5.71627e-06
6.52199e-08
6.04445e-06
4.41183e-08
6.47959e-06
2.56474e-08
7.01232e-06
1.09693e-08
7.58661e-06
7.94963e-06
-2.06836e-06
8.49712e-06
-1.83121e-06
8.36838e-06
-1.61316e-06
8.21626e-06
-1.41329e-06
8.05014e-06
-1.23057e-06
7.87798e-06
-1.06393e-06
7.70527e-06
-9.12304e-07
7.53542e-06
-7.74667e-07
7.37038e-06
-6.50052e-07
7.21114e-06
-5.37555e-07
7.05811e-06
-4.36334e-07
6.9114e-06
-3.45605e-07
6.77096e-06
-2.64639e-07
6.63668e-06
-1.92755e-07
6.50842e-06
-1.2932e-07
6.38603e-06
-7.37404e-08
6.26935e-06
-2.54631e-08
6.15825e-06
1.60322e-08
6.05259e-06
5.12307e-08
5.95223e-06
8.05846e-08
5.85704e-06
1.04517e-07
5.76692e-06
1.23424e-07
5.68177e-06
1.3768e-07
5.60154e-06
1.47633e-07
5.52627e-06
1.5361e-07
5.45613e-06
1.5592e-07
5.39159e-06
1.54846e-07
5.33365e-06
1.50658e-07
5.28412e-06
1.43609e-07
5.24621e-06
1.33948e-07
5.22503e-06
1.21936e-07
5.22819e-06
1.07867e-07
5.26618e-06
9.21067e-08
5.35239e-06
7.51393e-08
5.50261e-06
5.76293e-08
5.73379e-06
4.04895e-08
6.0616e-06
2.49309e-08
6.49515e-06
1.23957e-08
7.02484e-06
4.1112e-09
7.59486e-06
7.95372e-06
-2.35557e-06
8.22547e-06
-2.10455e-06
8.11736e-06
-1.87334e-06
7.98506e-06
-1.66096e-06
7.83776e-06
-1.46634e-06
7.68337e-06
-1.28836e-06
7.52729e-06
-1.12591e-06
7.37298e-06
-9.77932e-07
7.22241e-06
-8.43416e-07
7.07663e-06
-7.21429e-07
6.93613e-06
-6.111e-07
6.80108e-06
-5.11623e-07
6.67149e-06
-4.22248e-07
6.54731e-06
-3.42277e-07
6.42844e-06
-2.71058e-07
6.31479e-06
-2.07985e-07
6.20626e-06
-1.5249e-07
6.10274e-06
-1.04039e-07
6.00412e-06
-6.21392e-08
5.91031e-06
-2.63255e-08
5.8212e-06
3.83668e-09
5.73673e-06
2.87556e-08
5.65682e-06
4.88145e-08
5.58145e-06
6.43748e-08
5.51067e-06
7.57767e-08
5.4447e-06
8.334e-08
5.38401e-06
8.73649e-08
5.3296e-06
8.81347e-08
5.28334e-06
8.59226e-08
5.24842e-06
8.1002e-08
5.22995e-06
7.3663e-08
5.23553e-06
6.42387e-08
5.27561e-06
5.31427e-08
5.3635e-06
4.0919e-08
5.51485e-06
2.83034e-08
5.74642e-06
1.62899e-08
6.07361e-06
6.18064e-09
6.50525e-06
-4.84846e-10
7.03149e-06
-2.61842e-09
7.59696e-06
7.95107e-06
-2.62285e-06
7.94139e-06
-2.35988e-06
7.8544e-06
-2.1172e-06
7.74239e-06
-1.89381e-06
7.61439e-06
-1.68864e-06
7.4782e-06
-1.50052e-06
7.33919e-06
-1.32834e-06
7.2008e-06
-1.171e-06
7.06508e-06
-1.02747e-06
6.93312e-06
-8.96801e-07
6.80548e-06
-7.78103e-07
6.68239e-06
-6.70552e-07
6.56394e-06
-5.73385e-07
6.45014e-06
-4.85891e-07
6.34094e-06
-4.07408e-07
6.2363e-06
-3.37319e-07
6.13615e-06
-2.75042e-07
6.04044e-06
-2.20037e-07
5.94909e-06
-1.718e-07
5.86205e-06
-1.29856e-07
5.77924e-06
-9.37628e-08
5.70061e-06
-6.31053e-08
5.62613e-06
-3.74907e-08
5.5558e-06
-1.65476e-08
5.4897e-06
7.41745e-11
5.42804e-06
1.27047e-08
5.37135e-06
2.16556e-08
5.32064e-06
2.72252e-08
5.27776e-06
2.97049e-08
5.24594e-06
2.93903e-08
5.23028e-06
2.65999e-08
5.23834e-06
2.17028e-08
5.28053e-06
1.51586e-08
5.37007e-06
7.56904e-09
5.52246e-06
-2.62071e-10
5.75426e-06
-7.27026e-09
6.08062e-06
-1.20871e-08
6.51005e-06
-1.31451e-08
7.03252e-06
-9.2212e-09
7.593e-06
7.94183e-06
-2.86814e-06
7.64725e-06
-2.59532e-06
7.58159e-06
-2.34302e-06
7.4901e-06
-2.11028e-06
7.38167e-06
-1.89601e-06
7.26395e-06
-1.69908e-06
7.14226e-06
-1.51834e-06
7.02007e-06
-1.35271e-06
6.89944e-06
-1.20113e-06
6.78155e-06
-1.06266e-06
6.66701e-06
-9.36398e-07
6.55613e-06
-8.21505e-07
6.44906e-06
-7.17216e-07
6.34585e-06
-6.22814e-07
6.24654e-06
-5.3763e-07
6.15111e-06
-4.61041e-07
6.05955e-06
-3.92459e-07
5.97184e-06
-3.31339e-07
5.88795e-06
-2.77167e-07
5.80785e-06
-2.29465e-07
5.73151e-06
-1.87782e-07
5.6589e-06
-1.51696e-07
5.59001e-06
-1.20808e-07
5.52488e-06
-9.47377e-08
5.46359e-06
-7.31298e-08
5.40641e-06
-5.56469e-08
5.35385e-06
-4.19671e-08
5.30694e-06
-3.17793e-08
5.26757e-06
-2.47758e-08
5.23894e-06
-2.06406e-08
5.22615e-06
-1.90293e-08
5.23675e-06
-1.95386e-08
5.28106e-06
-2.16652e-08
5.37221e-06
-2.47539e-08
5.52556e-06
-2.79391e-08
5.75745e-06
-3.00843e-08
6.08276e-06
-2.97511e-08
6.50971e-06
-2.52981e-08
7.02804e-06
-1.54802e-08
7.58315e-06
7.92633e-06
-3.08969e-06
7.34555e-06
-2.80922e-06
7.30114e-06
-2.54927e-06
7.23016e-06
-2.30892e-06
7.14133e-06
-2.08714e-06
7.04216e-06
-1.88279e-06
6.93792e-06
-1.69476e-06
6.83205e-06
-1.52197e-06
6.72666e-06
-1.36339e-06
6.62298e-06
-1.21806e-06
6.52169e-06
-1.08509e-06
6.42317e-06
-9.63639e-07
6.32762e-06
-8.52947e-07
6.23517e-06
-7.52296e-07
6.14589e-06
-6.61018e-07
6.05982e-06
-5.78485e-07
5.977e-06
-5.04112e-07
5.89745e-06
-4.37348e-07
5.82116e-06
-3.77679e-07
5.74815e-06
-3.24622e-07
5.67842e-06
-2.7772e-07
5.61197e-06
-2.36547e-07
5.54881e-06
-2.00697e-07
5.489e-06
-1.69789e-07
5.43265e-06
-1.43462e-07
5.38005e-06
-1.21371e-07
5.33173e-06
-1.03186e-07
5.28874e-06
-8.85871e-08
5.25296e-06
-7.72521e-08
5.22761e-06
-6.88475e-08
5.21776e-06
-6.30047e-08
5.23092e-06
-5.92887e-08
5.27737e-06
-5.71553e-08
5.3701e-06
-5.58996e-08
5.52432e-06
-5.45977e-08
5.75616e-06
-5.20491e-08
6.08021e-06
-4.67484e-08
6.5044e-06
-3.69908e-08
7.01826e-06
-2.14771e-08
7.5676e-06
7.90483e-06
-3.28606e-06
7.03884e-06
-3.00022e-06
7.0153e-06
-2.73465e-06
6.96459e-06
-2.48852e-06
6.8952e-06
-2.26084e-06
6.81448e-06
-2.05054e-06
6.72762e-06
-1.85655e-06
6.63806e-06
-1.67781e-06
6.54792e-06
-1.51331e-06
6.45848e-06
-1.36211e-06
6.3705e-06
-1.22334e-06
6.2844e-06
-1.09616e-06
6.20046e-06
-9.7983e-07
6.11885e-06
-8.7363e-07
6.03969e-06
-7.76901e-07
5.96309e-06
-6.89019e-07
5.88911e-06
-6.09402e-07
5.81781e-06
-5.37501e-07
5.74923e-06
-4.72801e-07
5.68342e-06
-4.14819e-07
5.6204e-06
-3.63097e-07
5.56021e-06
-3.17204e-07
5.50288e-06
-2.76734e-07
5.4485e-06
-2.41304e-07
5.3972e-06
-2.10548e-07
5.34928e-06
-1.84119e-07
5.30529e-06
-1.61682e-07
5.26629e-06
-1.42905e-07
5.23419e-06
-1.27457e-07
5.21217e-06
-1.14989e-07
5.20531e-06
-1.05109e-07
5.22106e-06
-9.73545e-08
5.26963e-06
-9.11422e-08
5.36391e-06
-8.5722e-08
5.51891e-06
-8.01163e-08
5.75056e-06
-7.30657e-08
6.07317e-06
-6.30031e-08
6.49433e-06
-4.81652e-08
7.00341e-06
-2.71984e-08
7.5466e-06
7.87762e-06
-3.45621e-06
6.72964e-06
-3.16728e-06
6.72636e-06
-2.89813e-06
6.69544e-06
-2.64804e-06
6.64512e-06
-2.41613e-06
6.58257e-06
-2.20139e-06
6.51288e-06
-2.00279e-06
6.43946e-06
-1.81933e-06
6.36446e-06
-1.65004e-06
6.2892e-06
-1.49401e-06
6.21447e-06
-1.35038e-06
6.14078e-06
-1.21834e-06
6.06844e-06
-1.09717e-06
5.99768e-06
-9.86154e-07
5.92868e-06
-8.84651e-07
5.86158e-06
-7.92045e-07
5.79649e-06
-7.07761e-07
5.7335e-06
-6.31257e-07
5.6727e-06
-5.62021e-07
5.61415e-06
-4.99572e-07
5.55791e-06
-4.43453e-07
5.50405e-06
-3.93234e-07
5.45263e-06
-3.48511e-07
5.40375e-06
-3.08899e-07
5.35757e-06
-2.74032e-07
5.3144e-06
-2.43561e-07
5.27481e-06
-2.17145e-07
5.23988e-06
-1.94448e-07
5.21149e-06
-1.7513e-07
5.19286e-06
-1.58826e-07
5.18901e-06
-1.45127e-07
5.20738e-06
-1.33541e-07
5.25806e-06
-1.23452e-07
5.35383e-06
-1.14069e-07
5.50955e-06
-1.04365e-07
5.74087e-06
-9.30263e-08
6.06183e-06
-7.84308e-08
6.47973e-06
-5.87626e-08
6.98373e-06
-3.26154e-08
7.52043e-06
7.845e-06
-3.59943e-06
6.42039e-06
-3.30962e-06
6.43654e-06
-3.0389e-06
6.42472e-06
-2.7867e-06
6.3929e-06
-2.5522e-06
6.34808e-06
-2.33452e-06
6.2952e-06
-2.1327e-06
6.23764e-06
-1.94578e-06
6.17755e-06
-1.77285e-06
6.11627e-06
-1.61303e-06
6.05466e-06
-1.46551e-06
5.99326e-06
-1.32952e-06
5.93245e-06
-1.20432e-06
5.87249e-06
-1.08926e-06
5.81362e-06
-9.83684e-07
5.756e-06
-8.87005e-07
5.69979e-06
-7.98657e-07
5.64512e-06
-7.18108e-07
5.59211e-06
-6.44855e-07
5.54085e-06
-5.7842e-07
5.49144e-06
-5.18353e-07
5.44395e-06
-4.64227e-07
5.39848e-06
-4.1564e-07
5.35514e-06
-3.72209e-07
5.31413e-06
-3.33571e-07
5.27575e-06
-2.99375e-07
5.24061e-06
-2.69279e-07
5.20978e-06
-2.42942e-07
5.18516e-06
-2.20016e-07
5.16994e-06
-2.00126e-07
5.16913e-06
-1.82844e-07
5.19011e-06
-1.67655e-07
5.24289e-06
-1.53914e-07
5.34011e-06
-1.4079e-07
5.49644e-06
-1.27213e-07
5.7273e-06
-1.11823e-07
6.04645e-06
-9.29476e-08
6.46085e-06
-6.87243e-08
6.9595e-06
-3.7701e-08
7.4894e-06
7.80729e-06
-3.71539e-06
6.11339e-06
-3.4268e-06
6.14794e-06
-3.15645e-06
6.15436e-06
-2.9039e-06
6.14034e-06
-2.66846e-06
6.11264e-06
-2.44933e-06
6.07608e-06
-2.24564e-06
6.03395e-06
-2.05652e-06
5.98843e-06
-1.8811e-06
5.94086e-06
-1.71857e-06
5.89213e-06
-1.56814e-06
5.84284e-06
-1.42909e-06
5.7934e-06
-1.30072e-06
5.74412e-06
-1.18238e-06
5.69527e-06
-1.07346e-06
5.64706e-06
-9.73384e-07
5.59969e-06
-8.81596e-07
5.55331e-06
-7.97582e-07
5.50806e-06
-7.20849e-07
5.46408e-06
-6.50932e-07
5.42149e-06
-5.87386e-07
5.38037e-06
-5.29792e-07
5.34086e-06
-4.77753e-07
5.30309e-06
-4.3089e-07
5.26726e-06
-3.88842e-07
5.2337e-06
-3.51259e-07
5.20303e-06
-3.17801e-07
5.17632e-06
-2.88123e-07
5.15548e-06
-2.61873e-07
5.14369e-06
-2.38664e-07
5.14593e-06
-2.18056e-07
5.16951e-06
-1.99512e-07
5.22436e-06
-1.82361e-07
5.32297e-06
-1.65738e-07
5.47983e-06
-1.48537e-07
5.71011e-06
-1.29353e-07
6.02727e-06
-1.06473e-07
6.43798e-06
-7.79946e-08
6.93102e-06
-4.24247e-08
7.45382e-06
7.76487e-06
-3.80404e-06
5.81077e-06
-3.51866e-06
5.86254e-06
-3.25051e-06
5.8862e-06
-2.9993e-06
5.88913e-06
-2.76448e-06
5.87781e-06
-2.54535e-06
5.85694e-06
-2.34114e-06
5.82974e-06
-2.15105e-06
5.79833e-06
-1.97429e-06
5.7641e-06
-1.8101e-06
5.72794e-06
-1.65775e-06
5.69049e-06
-1.51656e-06
5.6522e-06
-1.38586e-06
5.61341e-06
-1.26504e-06
5.57444e-06
-1.15351e-06
5.53552e-06
-1.05071e-06
5.49687e-06
-9.56125e-07
5.45869e-06
-8.69242e-07
5.42115e-06
-7.89588e-07
5.3844e-06
-7.16709e-07
5.34858e-06
-6.50173e-07
5.31382e-06
-5.89569e-07
5.28024e-06
-5.34508e-07
5.24802e-06
-4.84616e-07
5.21736e-06
-4.39537e-07
5.18862e-06
-3.98926e-07
5.16242e-06
-3.62442e-07
5.13984e-06
-3.29742e-07
5.12278e-06
-3.00467e-07
5.11442e-06
-2.74227e-07
5.11969e-06
-2.50566e-07
5.14585e-06
-2.28934e-07
5.20273e-06
-2.08634e-07
5.30268e-06
-1.88775e-07
5.45998e-06
-1.68216e-07
5.68956e-06
-1.45519e-07
6.00459e-06
-1.18933e-07
6.4114e-06
-8.65234e-08
6.89861e-06
-4.67635e-08
7.41406e-06
7.71811e-06
-3.86568e-06
5.51442e-06
-3.58529e-06
5.58215e-06
-3.32104e-06
5.62194e-06
-3.07276e-06
5.64084e-06
-2.84004e-06
5.64508e-06
-2.62229e-06
5.63919e-06
-2.41885e-06
5.62629e-06
-2.22899e-06
5.60847e-06
-2.05201e-06
5.58711e-06
-1.88721e-06
5.56313e-06
-1.73392e-06
5.53719e-06
-1.59149e-06
5.50975e-06
-1.45931e-06
5.48122e-06
-1.3368e-06
5.45191e-06
-1.2234e-06
5.4221e-06
-1.11858e-06
5.39204e-06
-1.02184e-06
5.36194e-06
-9.32697e-07
5.33199e-06
-8.50693e-07
5.30238e-06
-7.75389e-07
5.27326e-06
-7.06366e-07
5.24478e-06
-6.43226e-07
5.21709e-06
-5.85587e-07
5.19037e-06
-5.33087e-07
5.16486e-06
-4.85374e-07
5.14091e-06
-4.42108e-07
5.11915e-06
-4.02951e-07
5.10068e-06
-3.67562e-07
5.08739e-06
-3.35581e-07
5.08244e-06
-3.06611e-07
5.09073e-06
-2.80191e-07
5.11944e-06
-2.55753e-07
5.17831e-06
-2.32584e-07
5.27953e-06
-2.0977e-07
5.43718e-06
-1.86141e-07
5.66595e-06
-1.60229e-07
5.97868e-06
-1.30257e-07
6.38143e-06
-9.42644e-08
6.86262e-06
-5.0695e-08
7.37049e-06
7.66742e-06
-3.90082e-06
5.22602e-06
-3.62704e-06
5.30836e-06
-3.36821e-06
5.3631e-06
-3.12433e-06
5.39694e-06
-2.89509e-06
5.41583e-06
-2.68003e-06
5.42412e-06
-2.47857e-06
5.42482e-06
-2.2901e-06
5.41999e-06
-2.11398e-06
5.41098e-06
-1.94958e-06
5.39872e-06
-1.7963e-06
5.38389e-06
-1.65353e-06
5.36697e-06
-1.52072e-06
5.34839e-06
-1.3973e-06
5.32849e-06
-1.28278e-06
5.30756e-06
-1.17663e-06
5.28588e-06
-1.07839e-06
5.26368e-06
-9.87603e-07
5.24119e-06
-9.03828e-07
5.21859e-06
-8.26645e-07
5.19606e-06
-7.55651e-07
5.17377e-06
-6.9046e-07
5.15189e-06
-6.30703e-07
5.13061e-06
-5.76027e-07
5.11018e-06
-5.26089e-07
5.09097e-06
-4.80556e-07
5.07362e-06
-4.39094e-07
5.05922e-06
-4.01366e-07
5.04967e-06
-3.67011e-07
5.04809e-06
-3.35631e-07
5.05935e-06
-3.06757e-07
5.09058e-06
-2.79815e-07
5.15138e-06
-2.54074e-07
5.2538e-06
-2.28601e-07
5.41172e-06
-2.02207e-07
5.63956e-06
-1.734e-07
5.94988e-06
-1.40381e-07
6.34842e-06
-1.01173e-07
6.82342e-06
-5.41954e-08
7.32352e-06
7.61323e-06
-3.91017e-06
4.94699e-06
-3.64442e-06
5.0426e-06
-3.39239e-06
5.11107e-06
-3.15423e-06
5.15875e-06
-2.92974e-06
5.19132e-06
-2.71857e-06
5.21293e-06
-2.52026e-06
5.22649e-06
-2.33426e-06
5.23399e-06
-2.16003e-06
5.23675e-06
-1.99701e-06
5.2357e-06
-1.84465e-06
5.23152e-06
-1.70242e-06
5.22472e-06
-1.56979e-06
5.21574e-06
-1.44625e-06
5.20494e-06
-1.33133e-06
5.19262e-06
-1.22455e-06
5.17909e-06
-1.12547e-06
5.1646e-06
-1.03366e-06
5.14937e-06
-9.48702e-07
5.13361e-06
-8.70193e-07
5.11754e-06
-7.97749e-07
5.10132e-06
-7.31002e-07
5.08514e-06
-6.69595e-07
5.0692e-06
-6.13187e-07
5.05377e-06
-5.61446e-07
5.03923e-06
-5.14045e-07
5.02622e-06
-4.70659e-07
5.01583e-06
-4.30953e-07
5.00996e-06
-3.94571e-07
5.01171e-06
-3.61114e-07
5.0259e-06
-3.3011e-07
5.05958e-06
-3.00977e-07
5.12225e-06
-2.72976e-07
5.22581e-06
-2.45158e-07
5.38391e-06
-2.16319e-07
5.61073e-06
-1.84951e-07
5.91852e-06
-1.49241e-07
6.31271e-06
-1.07202e-07
6.78139e-06
-5.72389e-08
7.27357e-06
7.556e-06
-3.89463e-06
4.67854e-06
-3.63811e-06
4.78607e-06
-3.39409e-06
4.86704e-06
-3.16282e-06
4.92745e-06
-2.94423e-06
4.97271e-06
-2.73806e-06
5.00676e-06
-2.54395e-06
5.03238e-06
-2.36145e-06
5.05148e-06
-2.19008e-06
5.06538e-06
-2.02938e-06
5.07499e-06
-1.87883e-06
5.08097e-06
-1.73798e-06
5.08385e-06
-1.60633e-06
5.08408e-06
-1.48343e-06
5.08202e-06
-1.36884e-06
5.07802e-06
-1.26211e-06
5.07236e-06
-1.16284e-06
5.06531e-06
-1.07063e-06
5.05713e-06
-9.85066e-07
5.04804e-06
-9.05786e-07
5.03824e-06
-8.3242e-07
5.02794e-06
-7.64617e-07
5.01733e-06
-7.02035e-07
5.00662e-06
-6.44348e-07
4.99608e-06
-5.91233e-07
4.98612e-06
-5.42375e-07
4.97736e-06
-4.97455e-07
4.97091e-06
-4.56146e-07
4.96865e-06
-4.18095e-07
4.97366e-06
-3.82906e-07
4.99072e-06
-3.50107e-07
5.02679e-06
-3.19113e-07
5.09127e-06
-2.89177e-07
5.19588e-06
-2.59341e-07
5.35408e-06
-2.28391e-07
5.57978e-06
-1.94809e-07
5.88494e-06
-1.56778e-07
6.27469e-06
-1.12309e-07
6.73693e-06
-5.97996e-08
7.22108e-06
7.49622e-06
-3.85519e-06
4.42165e-06
-3.60891e-06
4.53979e-06
-3.37394e-06
4.63205e-06
-3.15059e-06
4.70409e-06
-2.93892e-06
4.76102e-06
-2.73875e-06
4.80659e-06
-2.54982e-06
4.84345e-06
-2.37176e-06
4.87343e-06
-2.20418e-06
4.89781e-06
-2.04666e-06
4.91747e-06
-1.89877e-06
4.93308e-06
-1.7601e-06
4.94517e-06
-1.6302e-06
4.95417e-06
-1.50868e-06
4.96049e-06
-1.39512e-06
4.96444e-06
-1.28912e-06
4.96635e-06
-1.19031e-06
4.96648e-06
-1.09829e-06
4.9651e-06
-1.01272e-06
4.96245e-06
-9.33221e-07
4.95874e-06
-8.59461e-07
4.95417e-06
-7.91104e-07
4.94897e-06
-7.27828e-07
4.94334e-06
-6.69319e-07
4.93758e-06
-6.15268e-07
4.93207e-06
-5.6537e-07
4.92746e-06
-5.19317e-07
4.92486e-06
-4.76787e-07
4.92613e-06
-4.37437e-07
4.93431e-06
-4.00873e-07
4.95416e-06
-3.66627e-07
4.99255e-06
-3.34111e-07
5.05876e-06