/*--------------------------------*- C++ -*----------------------------------*\
| =========                 |                                                 |
| \\      /  F ield         | OpenFOAM: The Open Source CFD Toolbox           |
|  \\    /   O peration     | Version:  5.0                                   |
|   \\  /    A nd           | Web:      www.OpenFOAM.org                      |
|    \\/     M anipulation  |                                                 |
\*---------------------------------------------------------------------------*/
FoamFile
{
    version     2.0;
    format      ascii;
    class       volScalarField;
    location    "0.2";
    object      alpha.water;
}
// * * * * * * * * * * * * * * * * * * * * * * * * * * * * * * * * * * * * * //

dimensions      [0 0 0 0 0 0 0];

internalField   nonuniform List<scalar> 
1915
(
0.990958
0.793897
0.999954
0.895713
0.999978
0.975092
0.999979
1.00001
0.999964
1
0.999978
0.999999
0.999984
0.999984
0.999922
0.999963
0.999056
0.999873
0.988973
1
8.07984e-26
5.02462e-24
3.71282e-23
7.69413e-23
6.93263e-23
3.0464e-23
5.32755e-24
4.62238e-25
2.91162e-26
1.8011e-27
1.21133e-28
9.2285e-30
7.66367e-31
6.40262e-32
5.09547e-33
3.82063e-34
2.72351e-35
1.85132e-36
1.19381e-37
7.26562e-39
4.15698e-40
2.22839e-41
1.11528e-42
5.18687e-44
2.23006e-45
8.81708e-47
3.1862e-48
1.04464e-49
3.07939e-51
8.06905e-53
1.85211e-54
3.65265e-56
6.03154e-58
8.04781e-60
8.24788e-62
6.02143e-64
2.78048e-66
6.62717e-69
5.52975e-72
1.05657e-75
6.65983e-24
8.5029e-22
8.11355e-21
1.81369e-20
1.74563e-20
6.17094e-21
8.53213e-22
6.36549e-23
3.91616e-24
2.36784e-25
1.46469e-26
9.53939e-28
6.51768e-29
4.51776e-30
3.07762e-31
2.03554e-32
1.30707e-33
8.12258e-35
4.83902e-36
2.73871e-37
1.46306e-38
7.34322e-40
3.44862e-41
1.50888e-42
6.12172e-44
2.29102e-45
7.86142e-47
2.45556e-48
6.91914e-50
1.73943e-51
3.8461e-53
7.34514e-55
1.18302e-56
1.5553e-58
1.5958e-60
1.19732e-62
5.9531e-65
1.69272e-67
2.35241e-70
2.50367e-73
6.46972e-22
9.81735e-20
9.0719e-19
1.92274e-18
1.73328e-18
4.96345e-19
5.797e-20
3.96072e-21
2.36105e-22
1.36153e-23
7.70569e-25
4.37674e-26
2.5216e-27
1.46174e-28
8.40942e-30
4.7671e-31
2.65678e-32
1.44738e-33
7.62795e-35
3.85017e-36
1.84719e-37
8.37572e-39
3.57216e-40
1.42632e-41
5.30613e-43
1.82963e-44
5.81334e-46
1.69018e-47
4.45868e-49
1.05622e-50
2.21796e-52
4.06197e-54
6.35247e-56
8.24834e-58
8.55681e-60
6.70775e-62
3.64152e-64
1.17315e-66
1.58118e-69
9.76634e-73
6.27047e-20
8.46728e-18
6.84089e-17
1.32106e-16
1.08242e-16
2.56485e-17
2.54172e-18
1.57712e-19
8.89198e-21
4.84103e-22
2.53682e-23
1.29644e-24
6.54892e-26
3.28307e-27
1.63116e-28
8.03102e-30
3.91577e-31
1.87935e-32
8.78669e-34
3.96214e-35
1.7095e-36
7.01211e-38
2.71958e-39
9.92237e-41
3.38823e-42
1.07716e-43
3.16958e-45
8.57421e-47
2.11519e-48
4.71251e-50
9.36972e-52
1.63807e-53
2.47077e-55
3.1359e-57
3.23568e-59
2.57901e-61
1.45698e-63
4.80639e-66
6.19581e-69
9.66882e-73
5.05233e-18
5.48988e-16
3.98216e-15
7.22653e-15
5.43628e-15
1.00556e-15
7.77725e-17
4.24223e-18
2.23723e-19
1.1531e-20
5.67673e-22
2.68012e-23
1.22876e-24
5.52038e-26
2.44315e-27
1.07055e-28
4.64993e-30
1.99153e-31
8.33557e-33
3.38019e-34
1.31824e-35
4.91222e-37
1.73904e-38
5.81783e-40
1.82948e-41
5.37863e-43
1.46983e-44
3.70874e-46
8.57402e-48
1.79945e-49
3.39034e-51
5.65596e-53
8.20908e-55
1.0127e-56
1.0276e-58
8.14986e-61
4.58941e-63
1.51762e-65
1.62129e-68
6.71145e-73
2.72901e-16
2.66245e-14
1.82382e-13
3.32338e-13
1.79406e-13
2.33518e-14
1.40747e-15
7.10819e-17
3.66536e-18
1.84323e-19
8.7359e-21
3.91418e-22
1.68081e-23
7.0029e-25
2.85288e-26
1.14509e-27
4.53703e-29
1.76719e-30
6.72141e-32
2.48009e-33
8.82327e-35
3.00897e-36
9.78335e-38
3.0168e-39
8.77624e-41
2.39585e-42
6.10261e-44
1.441e-45
3.13079e-47
6.20373e-49
1.10928e-50
1.76648e-52
2.46337e-54
2.9404e-56
2.90606e-58
2.25068e-60
1.2236e-62
3.93727e-65
3.06992e-68
1.57984e-73
1.29565e-14
9.09502e-13
4.77531e-12
7.51344e-12
2.32361e-12
2.36388e-13
1.34231e-14
7.10785e-16
3.83682e-17
1.95886e-18
9.20165e-20
4.02336e-21
1.66749e-22
6.64341e-24
2.56901e-25
9.71402e-27
3.5989e-28
1.3028e-29
4.58879e-31
1.5657e-32
5.15071e-34
1.62594e-35
4.90203e-37
1.4047e-38
3.80707e-40
9.70964e-42
2.3176e-43
5.14509e-45
1.05473e-46
1.97963e-48
3.36708e-50
5.12356e-52
6.85907e-54
7.8929e-56
7.53506e-58
5.59586e-60
2.94398e-62
8.60865e-65
2.0659e-68
1.64528e-74
6.08525e-13
1.80132e-11
5.10774e-11
5.09302e-11
1.08071e-11
1.14218e-12
7.73418e-14
4.70287e-15
2.72069e-16
1.42755e-17
6.74743e-19
2.93618e-20
1.20246e-21
4.69358e-23
1.76472e-24
6.43208e-26
2.27724e-27
7.82329e-29
2.60238e-30
8.35901e-32
2.58398e-33
7.65933e-35
2.16853e-36
5.83969e-38
1.48922e-39
3.57982e-41
8.06996e-43
1.69602e-44
3.30026e-46
5.89733e-48
9.58032e-50
1.39693e-51
1.79738e-53
1.99146e-55
1.82739e-57
1.29859e-59
6.55086e-62
1.71049e-64
2.21152e-68
1.72627e-74
2.14674e-11
1.34614e-10
1.84309e-10
1.04247e-10
2.57681e-11
3.81426e-12
3.4637e-13
2.40216e-14
1.43194e-15
7.58146e-17
3.60853e-18
1.57762e-19
6.45566e-21
2.50311e-22
9.28249e-24
3.31078e-25
1.13831e-26
3.77427e-28
1.20595e-29
3.70727e-31
1.09404e-32
3.09079e-34
8.33272e-36
2.13621e-37
5.18771e-39
1.18841e-40
2.556e-42
5.13283e-44
9.56112e-46
1.63895e-47
2.55998e-49
3.59719e-51
4.46853e-53
4.78268e-55
4.22629e-57
2.8864e-59
1.38174e-61
3.1091e-64
2.97724e-68
2.30767e-74
1.37223e-13
1.81105e-11
6.51133e-11
6.83167e-11
3.94844e-11
1.18111e-11
1.33557e-12
9.81039e-14
5.75299e-15
3.02951e-16
1.45976e-17
6.46944e-19
2.66408e-20
1.03337e-21
3.80961e-23
1.34191e-24
4.52888e-26
1.46633e-27
4.55553e-29
1.35722e-30
3.87212e-32
1.05571e-33
2.74386e-35
6.77802e-37
1.58601e-38
3.50219e-40
7.26616e-42
1.40915e-43
2.53859e-45
4.21598e-47
6.39272e-49
8.73891e-51
1.05829e-52
1.106e-54
9.54752e-57
6.29905e-59
2.82048e-61
5.09296e-64
4.17499e-68
3.25804e-74
0.926432
0.999113
0.540861
0.994287
0.0359038
0.96531
0.0110959
0.921628
0.00351561
0.825718
0.00128634
0.409684
0.00043334
0.000351316
0.000122542
0.000204369
4.42329e-05
1.60209e-05
1.22958e-05
6.88644e-06
6.64823e-06
4.32088e-06
1.47329e-06
4.36871e-07
1.17816e-07
2.97855e-08
7.26233e-09
1.73028e-09
3.85298e-10
9.39515e-11
2.6577e-11
1.19503e-11
3.31566e-12
5.10224e-13
8.13966e-14
1.27728e-14
1.92745e-15
2.78487e-16
3.83783e-17
5.02734e-18
6.26827e-19
7.46592e-20
8.44844e-21
0.0900081
0
3.16507e-11
0
0.108393
1.16935e-10
5.85578e-09
1.96405e-09
0.115506
1.63137e-09
2.688e-08
4.46316e-07
0.264951
0.00309677
-9.69659e-07
8.04676e-07
0.670238
0.0277623
-3.14854e-05
1.19152e-06
0.625123
0.175235
0.000673053
6.40188e-06
0.215429
0.233074
0.0523432
0.000680093
0.0164315
0.11364
0.104998
0.0334909
0.00543081
0.00943723
0.0309249
0.0338712
0.00183164
0.00280745
0.00241652
0.0042346
0.000571
0.000865483
0.000706657
0.000425997
0.000166376
0.000240181
0.000193974
0.000117843
4.32438e-05
6.08943e-05
4.69201e-05
2.9433e-05
1.03386e-05
1.42097e-05
1.06014e-05
6.24638e-06
2.30208e-06
3.07987e-06
2.24962e-06
1.23936e-06
4.81746e-07
6.25182e-07
4.48363e-07
2.32542e-07
9.56374e-08
1.20056e-07
8.46651e-08
4.28894e-08
1.82694e-08
2.20571e-08
1.52761e-08
7.66086e-09
3.36235e-09
3.87781e-09
2.65057e-09
1.34095e-09
5.93566e-10
6.55935e-10
4.92936e-10
2.75363e-10
1.23183e-10
1.3342e-10
1.02286e-10
6.78468e-11
2.76827e-11
3.04549e-11
2.94425e-11
1.91627e-11
6.94364e-12
7.45725e-12
6.48123e-12
3.44197e-12
1.26403e-12
1.28811e-12
9.63559e-13
4.7533e-13
1.81886e-13
1.80129e-13
1.31837e-13
6.40828e-14
2.5859e-14
2.49307e-14
1.74612e-14
8.29487e-15
3.55451e-15
3.32019e-15
2.22017e-15
1.02777e-15
4.70306e-16
4.23621e-16
2.70514e-16
1.21804e-16
5.9829e-17
5.17238e-17
3.15465e-17
1.37965e-17
7.3074e-18
6.03457e-18
3.51695e-18
1.49201e-18
8.53216e-19
6.71464e-19
3.74345e-19
1.53866e-19
9.4716e-20
7.12713e-20
3.79818e-20
1.51097e-20
1.00003e-20
7.20667e-21
3.68277e-21
1.41109e-21
4.20144e-12
2.14532e-11
-1.28937e-10
9.89405e-11
3.08591e-11
2.24171e-11
4.15167e-12
3.12205e-13
1.7482e-14
9.15012e-16
4.52918e-17
2.06654e-18
8.68349e-20
3.40227e-21
1.25723e-22
4.4089e-24
1.47251e-25
4.6939e-27
1.42999e-28
4.16499e-30
1.15912e-31
3.07833e-33
7.78643e-35
1.87127e-36
4.26023e-38
9.15689e-40
1.85067e-41
3.50011e-43
6.15825e-45
1.00069e-46
1.488e-48
2.00015e-50
2.38972e-52
2.47485e-54
2.13198e-56
1.41423e-58
6.15891e-61
8.45067e-64
8.18879e-68
6.43954e-74
6.20828e-11
6.61452e-10
2.29842e-09
-5.50127e-11
5.32174e-11
1.53752e-11
9.59562e-12
8.32828e-13
4.30747e-14
2.14235e-15
1.08161e-16
5.1825e-18
2.26966e-19
9.12355e-21
3.41692e-22
1.20332e-23
4.0023e-25
1.26157e-26
3.78052e-28
1.07916e-29
2.9367e-31
7.61723e-33
1.88142e-34
4.41722e-36
9.83287e-38
2.06897e-39
4.09988e-41
7.61721e-43
1.31966e-44
2.11752e-46
3.11996e-48
4.17353e-50
4.99053e-52
5.21555e-54
4.59906e-56
3.21353e-58
1.55893e-60
3.35811e-63
1.89527e-67
1.347e-73
3.72765e-07
2.78537e-08
6.02288e-08
7.23798e-09
3.32964e-10
2.56803e-11
1.41617e-11
2.12564e-12
1.20059e-13
4.8661e-15
2.28456e-16
1.14002e-17
5.28367e-19
2.2062e-20
8.42768e-22
2.98929e-23
9.88757e-25
3.06903e-26
9.01026e-28
2.51534e-29
6.69226e-31
1.69781e-32
4.10547e-34
9.45067e-36
2.06612e-37
4.27703e-39
8.35349e-41
1.53272e-42
2.6282e-44
4.18454e-46
6.13621e-48
8.20048e-50
9.84764e-52
1.04178e-53
9.4266e-56
6.95643e-58
3.82863e-60
1.2689e-62
8.82371e-66
9.61026e-72
3.49267e-06
6.60547e-07
6.49327e-07
4.53709e-08
1.65236e-09
1.18731e-10
1.62118e-11
4.50708e-12
7.0014e-13
3.59338e-14
1.22791e-15
4.811e-17
1.96586e-18
7.61106e-20
2.7441e-21
9.22372e-23
2.88116e-24
8.35716e-26
2.27313e-27
5.87169e-29
1.45281e-30
3.45517e-32
7.90034e-34
1.73391e-35
3.64238e-37
7.29818e-39
1.38936e-40
2.50149e-42
4.23705e-44
6.70893e-46
9.85337e-48
1.32928e-49
1.62626e-51
1.7729e-53
1.6793e-55
1.33045e-57
8.29606e-60
3.6386e-62
8.56329e-65
4.91196e-68
7.54669e-05
3.14703e-05
7.41739e-06
1.35005e-06
8.41867e-08
2.94014e-09
8.8299e-11
7.42025e-12
3.45157e-12
3.84368e-13
1.46452e-14
5.05832e-16
1.78867e-17
5.99581e-19
1.88659e-20
5.59134e-22
1.56035e-23
4.08389e-25
9.98096e-27
2.28067e-28
4.91328e-30
1.00904e-31
1.98999e-33
3.78785e-35
6.96781e-37
1.23856e-38
2.12488e-40
3.50831e-42
5.54619e-44
8.33834e-46
1.18317e-47
1.56376e-49
1.89521e-51
2.07498e-53
2.00547e-55
1.65783e-57
1.11574e-59
5.6288e-62
1.82605e-64
2.5764e-67
8.16972e-05
0.000230733
0.000121412
1.51328e-05
8.24134e-07
1.23348e-08
4.29792e-10
3.03985e-11
7.20229e-12
1.88574e-12
1.09332e-13
3.88693e-15
1.35114e-16
4.43199e-18
1.34738e-19
3.81508e-21
1.01113e-22
2.51389e-24
5.86248e-26
1.28005e-27
2.6115e-29
4.97826e-31
8.91029e-33
1.5046e-34
2.39666e-36
3.60207e-38
5.11208e-40
6.86363e-42
8.75571e-44
1.06759e-45
1.25128e-47
1.41074e-49
1.52949e-51
1.58303e-53
1.50875e-55
1.26867e-57
8.88096e-60
4.76483e-62
1.69713e-64
2.87375e-67
0.000112312
0.000490925
0.000192417
1.7648e-05
9.44183e-07
3.23835e-08
2.29946e-09
1.4386e-10
1.38275e-11
4.4262e-12
4.37048e-13
1.70657e-14
5.9722e-16
2.00428e-17
6.21109e-19
1.77544e-20
4.71546e-22
1.17202e-23
2.73079e-25
5.9643e-27
1.22012e-28
2.32844e-30
4.16505e-32
6.97889e-34
1.09291e-35
1.59434e-37
2.1567e-39
2.68862e-41
3.06231e-43
3.14911e-45
2.87456e-47
2.27867e-49
1.51439e-51
7.58438e-54
3.6326e-56
1.8854e-58
9.11575e-61
4.17857e-63
1.676e-65
5.95053e-68
0.00305931
0.000352442
7.27192e-05
1.08007e-05
1.22247e-06
1.09146e-07
8.41692e-09
5.96268e-10
4.78626e-11
3.41e-12
6.90711e-13
4.26445e-14
1.4524e-15
5.03866e-17
1.63762e-18
4.8947e-20
1.34948e-21
3.44795e-23
8.22977e-25
1.84401e-26
3.86988e-28
7.60051e-30
1.3971e-31
2.40409e-33
3.86893e-35
5.81073e-37
8.11851e-39
1.05052e-40
1.25117e-42
1.35987e-44
1.33268e-46
1.15691e-48
8.65416e-51
5.33526e-53
2.43874e-55
6.76671e-58
2.44988e-60
7.08268e-63
1.21476e-65
7.54377e-69
0.0113057
0.000479592
9.30711e-05
1.44458e-05
1.78043e-06
1.78216e-07
1.48491e-08
1.05413e-09
7.52131e-11
5.42373e-12
6.79436e-13
4.52538e-14
1.8427e-15
6.84344e-17
2.36386e-18
7.49461e-20
2.18882e-21
5.90671e-23
1.47549e-24
3.42086e-26
7.38302e-28
1.48842e-29
2.80906e-31
4.96204e-33
8.19881e-35
1.26578e-36
1.82227e-38
2.43911e-40
3.02322e-42
3.44574e-44
3.58033e-46
3.36282e-48
2.815e-50
2.05947e-52
1.28378e-54
6.52311e-57
2.5406e-59
6.70207e-62
9.09689e-65
6.42243e-68
0.00338202
0.000975181
5.0255e-05
8.42006e-06
1.12981e-06
1.236e-07
1.12618e-08
8.70564e-10
6.15455e-11
4.62325e-12
4.79219e-13
3.22355e-14
1.41776e-15
5.5786e-17
2.03039e-18
6.77765e-20
2.07978e-21
5.87339e-23
1.52751e-24
3.68411e-26
8.2732e-28
1.73201e-29
3.38205e-31
6.1635e-33
1.04831e-34
1.66283e-36
2.45648e-38
3.37212e-40
4.28676e-42
5.03324e-44
5.43318e-46
5.33444e-48
4.71337e-50
3.69238e-52
2.51043e-54
1.43598e-56
6.60896e-59
2.28704e-61
5.23578e-64
5.83179e-67
0.000310971
0.000125823
1.19309e-05
2.07271e-06
2.94853e-07
3.46956e-08
3.42355e-09
2.87814e-10
2.47877e-11
1.9354e-12
2.05383e-13
1.24925e-14
5.69826e-16
2.42039e-17
9.37904e-19
3.32032e-20
1.08015e-21
3.24699e-23
9.06174e-25
2.33232e-26
5.54544e-28
1.22154e-29
2.49725e-31
4.74393e-33
8.37876e-35
1.37574e-36
2.09807e-38
2.96688e-40
3.8802e-42
4.67117e-44
5.14504e-46
5.15524e-48
4.65042e-50
3.72578e-52
2.60221e-54
1.54831e-56
7.54322e-59
2.8059e-61
7.05783e-64
8.80775e-67
6.63131e-05
2.35451e-05
2.62298e-06
4.47175e-07
6.4042e-08
7.77454e-09
8.03401e-10
7.18902e-11
7.38564e-12
9.06009e-13
7.22047e-14
3.90604e-15
1.89545e-16
8.41563e-18
3.3962e-19
1.25117e-20
4.23011e-22
1.32012e-23
3.80444e-25
1.01338e-26
2.49927e-28
5.71558e-30
1.21336e-31
2.39279e-33
4.3843e-35
7.46193e-37
1.17857e-38
1.72462e-40
2.33216e-42
2.9031e-44
3.30879e-46
3.42822e-48
3.19921e-50
2.65407e-52
1.92105e-54
1.17889e-56
5.89264e-59
2.2561e-61
5.86896e-64
7.60677e-67
1.2909e-05
3.92979e-06
6.32796e-07
9.12629e-08
1.28353e-08
1.55524e-09
1.64306e-10
1.98119e-11
2.8472e-12
2.88865e-13
1.85678e-14
1.02479e-15
5.19071e-17
2.38197e-18
9.94047e-20
3.80208e-21
1.33794e-22
4.3329e-24
1.29315e-25
3.56336e-27
9.08041e-29
2.14266e-30
4.68628e-32
9.50597e-34
1.78868e-35
3.12093e-37
5.0447e-39
7.54132e-41
1.03989e-42
1.31778e-44
1.52679e-46
1.60593e-48
1.5189e-50
1.27498e-52
9.32676e-55
5.79046e-57
2.93281e-59
1.13705e-61
2.99351e-64
3.91148e-67
2.41008e-06
7.31145e-07
1.41558e-07
1.89172e-08
2.58826e-09
3.24862e-10
4.3538e-11
7.50266e-12
9.38755e-13
7.06015e-14
4.41591e-15
2.54072e-16
1.32124e-17
6.24439e-19
2.69815e-20
1.06686e-21
3.86903e-23
1.28987e-24
3.96101e-26
1.12243e-27
2.9394e-29
7.12256e-31
1.59839e-32
3.32371e-34
6.40478e-36
1.14326e-37
1.88843e-39
2.88145e-41
4.0506e-43
5.22622e-45
6.15673e-47
6.57541e-49
6.30555e-51
5.35839e-53
3.96195e-55
2.48297e-57
1.26791e-59
4.94749e-62
1.30831e-64
1.71495e-67
4.83379e-07
1.39927e-07
3.00827e-08
4.36935e-09
6.10722e-10
9.14922e-11
1.76905e-11
2.72022e-12
2.44391e-13
1.73663e-14
1.13506e-15
6.69712e-17
3.5748e-18
1.73327e-19
7.66078e-21
3.09545e-22
1.14647e-23
3.90142e-25
1.22237e-26
3.53256e-28
9.43051e-30
2.32844e-31
5.32177e-33
1.12648e-34
2.20846e-36
4.00831e-38
6.72787e-40
1.04246e-41
1.48709e-43
1.9456e-45
2.32235e-47
2.5111e-49
2.43596e-51
2.09228e-53
1.56229e-55
9.87862e-58
5.08497e-60
1.99832e-62
5.31675e-65
7.00209e-68
9.05901e-08
2.5779e-08
6.04329e-09
1.01282e-09
1.63521e-10
3.61074e-11
6.45394e-12
6.86235e-13
5.61568e-14
4.18061e-15
2.79744e-16
1.68727e-17
9.21219e-19
4.56921e-20
2.06554e-21
8.53494e-23
3.2318e-24
1.12392e-25
3.59696e-27
1.06116e-28
2.89007e-30
7.27466e-32
1.69379e-33
3.6497e-35
7.27817e-37
1.34263e-38
2.28873e-40
3.59882e-42
5.20575e-44
6.90089e-46
8.33959e-48
9.12236e-50
8.94539e-52
7.76068e-54
5.84867e-56
3.72975e-58
1.93481e-60
7.65702e-63
2.04994e-65
2.71325e-68
1.60932e-08
4.64379e-09
1.17259e-09
2.40916e-10
5.97446e-11
1.21367e-11
1.50919e-12
1.42846e-13
1.21496e-14
9.23119e-16
6.29126e-17
3.86567e-18
2.1509e-19
1.08778e-20
5.01616e-22
2.11505e-23
8.1741e-25
2.90167e-26
9.47872e-28
2.8539e-29
7.93038e-31
2.036e-32
4.833e-34
1.06118e-35
2.15518e-37
4.04656e-39
7.01647e-41
1.12148e-42
1.6479e-44
2.21753e-46
2.71849e-48
3.01446e-50
2.99448e-52
2.62995e-54
2.00511e-56
1.29274e-58
6.77542e-61
2.70735e-63
7.31309e-66
9.75418e-69
2.85256e-09
8.89643e-10
2.48728e-10
7.65618e-11
1.80015e-11
2.60638e-12
2.86305e-13
2.79282e-14
2.41529e-15
1.86251e-16
1.28874e-17
8.04349e-19
4.54821e-20
2.33862e-21
1.09692e-22
4.70611e-24
1.85118e-25
6.69001e-27
2.22517e-28
6.82213e-30
1.93037e-31
5.04607e-33
1.21942e-34
2.72514e-36
5.63157e-38
1.07556e-39
1.89631e-41
3.08071e-43
4.5991e-45
6.285e-47
7.82097e-49
8.79919e-51
8.86464e-53
7.89221e-55
6.09699e-57
3.98137e-59
2.11266e-61
8.5434e-64
2.33439e-66
3.14619e-69
5.59762e-10
1.89951e-10
7.46723e-11
2.09297e-11
3.54377e-12
4.55945e-13
5.13029e-14
5.06975e-15
4.4346e-16
3.46042e-17
2.4242e-18
1.53264e-19
8.78294e-21
4.57887e-22
2.17847e-23
9.48378e-25
3.78663e-26
1.38942e-27
4.69324e-29
1.4615e-30
4.20084e-32
1.11554e-33
2.73851e-35
6.21659e-37
1.3048e-38
2.53067e-40
4.53019e-42
7.47088e-44
1.13189e-45
1.56943e-47
1.98105e-49
2.2603e-51
2.3087e-53
2.08348e-55
1.63117e-57
1.07927e-59
5.80187e-62
2.37651e-64
6.57589e-67
8.96752e-70
1.20111e-10
5.83617e-11
1.92358e-11
3.80744e-12
5.79455e-13
7.58003e-14
8.60531e-15
8.57006e-16
7.56004e-17
5.95324e-18
4.21118e-19
2.68982e-20
1.55807e-21
8.21435e-23
3.95386e-24
1.74212e-25
7.04262e-27
2.6172e-28
8.95602e-30
2.82605e-31
8.2325e-33
2.2159e-34
5.51427e-36
1.26896e-37
2.69999e-39
5.30836e-41
9.63209e-43
1.60997e-44
2.47202e-46
3.47331e-48
4.44227e-50
5.13501e-52
5.31338e-54
4.85728e-56
3.85199e-58
2.58163e-60
1.40578e-62
5.83293e-65
1.63487e-67
2.25678e-70
3.85717e-11
1.40706e-11
3.24722e-12
5.90452e-13
9.05161e-14
1.18816e-14
1.35371e-15
1.35463e-16
1.20183e-17
9.52547e-19
6.78635e-20
4.36827e-21
2.55128e-22
1.35687e-23
6.59146e-25
2.93236e-26
1.19735e-27
4.49601e-29
1.55506e-30
4.96105e-32
1.46148e-33
3.97891e-35
1.00167e-36
2.33216e-38
5.02099e-40
9.98916e-42
1.83421e-43
3.10252e-45
4.82086e-47
6.85486e-49
8.87256e-51
1.03797e-52
1.08702e-54
1.0058e-56
8.07427e-59
5.4786e-61
3.02082e-63
1.26942e-65
3.60382e-68
5.036e-71
8.31281e-12
2.21078e-12
4.82471e-13
8.7625e-14
1.33988e-14
1.75677e-15
2.00303e-16
2.00863e-17
1.7877e-18
1.42258e-19
1.01829e-20
6.58964e-22
3.87142e-23
2.07223e-24
1.01362e-25
4.54259e-27
1.86931e-28
7.07669e-30
2.46859e-31
7.94547e-33
2.36215e-34
6.49176e-36
1.65007e-37
3.87977e-39
8.43678e-41
1.69559e-42
3.1456e-44
5.37633e-46
8.44234e-48
1.21327e-49
1.58738e-51
1.87741e-53
1.98804e-55
1.86038e-57
1.51077e-59
1.03727e-61
5.78906e-64
2.46314e-66
7.08205e-69
1.0018e-71
1.20334e-12
3.15836e-13
6.86118e-14
1.23596e-14
1.87867e-15
2.45453e-16
2.79387e-17
2.80083e-18
2.49473e-19
1.98854e-20
1.42688e-21
9.26239e-23
5.46176e-24
2.93589e-25
1.4429e-26
6.50026e-28
2.69012e-29
1.02463e-30
3.59754e-32
1.16588e-33
3.49116e-35
9.66691e-37
2.47637e-38
5.86976e-40
1.28706e-41
2.60885e-43
4.88236e-45
8.41984e-47
1.33434e-48
1.93571e-50
2.55712e-52
3.05441e-54
3.26752e-56
3.09004e-58
2.53682e-60
1.76152e-62
9.9473e-65
4.28435e-67
1.24745e-69
1.78615e-72
1.66444e-13
4.32914e-14
9.29287e-15
1.65621e-15
2.49783e-16
3.24513e-17
3.67944e-18
3.67936e-19
3.27269e-20
2.60742e-21
1.87155e-22
1.2161e-23
7.18269e-25
3.86944e-26
1.90692e-27
8.61856e-29
3.58006e-30
1.3693e-31
4.82986e-33
1.57311e-34
4.73604e-36
1.31896e-37
3.39941e-39
8.10948e-41
1.79015e-42
3.65417e-44
6.88884e-46
1.19709e-47
1.91216e-49
2.7969e-51
3.72662e-53
4.49137e-55
4.84992e-57
4.63171e-59
3.84187e-61
2.69683e-63
1.5404e-65
6.71482e-68
1.97975e-70
2.86921e-73
2.20987e-14
5.66205e-15
1.19832e-15
2.10986e-16
3.15163e-17
4.06371e-18
4.58054e-19
4.55976e-20
4.04198e-21
3.21241e-22
2.30199e-23
1.4944e-24
8.82389e-26
4.75509e-27
2.34544e-28
1.06154e-29
4.41795e-31
1.69382e-32
5.99162e-34
1.95794e-35
5.91655e-37
1.65452e-38
4.28354e-40
1.02686e-41
2.27871e-43
4.67765e-45
8.87122e-47
1.55141e-48
2.49492e-50
3.67555e-52
4.93474e-54
5.99573e-56
6.53039e-58
6.2941e-60
5.27223e-62
3.73987e-64
2.16021e-66
9.52944e-69
2.84501e-71
4.1734e-74
2.80344e-15
7.06287e-16
1.47166e-16
2.55599e-17
3.77538e-18
4.82283e-19
5.39446e-20
5.33586e-21
4.70518e-22
3.72346e-23
2.65898e-24
1.72147e-25
1.01439e-26
5.45865e-28
2.69022e-29
1.21724e-30
5.06724e-32
1.94423e-33
6.88597e-35
2.25406e-36
6.82621e-38
1.9139e-39
4.97021e-41
1.19562e-42
2.66358e-44
5.49139e-46
1.04643e-47
1.83957e-49
2.97524e-51
4.4104e-53
5.9614e-55
7.29638e-57
8.01053e-59
7.78776e-61
6.58497e-63
4.71892e-65
2.75597e-67
1.23028e-69
3.71961e-72
5.52303e-75
3.39624e-16
8.40262e-17
1.72123e-17
2.94478e-18
4.29448e-19
5.4263e-20
6.01281e-21
5.89976e-22
5.16646e-23
4.06415e-24
2.88746e-25
1.86127e-26
1.09276e-27
5.86275e-29
2.88245e-30
1.30185e-31
5.41256e-33
2.0752e-34
7.34822e-36
2.40605e-37
7.2921e-39
2.04708e-40
5.32524e-42
1.28384e-43
2.86777e-45
5.93109e-47
1.13436e-48
2.00254e-50
3.25422e-52
4.84978e-54
6.59459e-56
8.12533e-58
8.98698e-60
8.80913e-62
7.51656e-64
5.4407e-66
3.21258e-68
1.45135e-70
4.44437e-73
6.6806e-76
3.92769e-17
9.53101e-18
1.91671e-18
3.2259e-19
4.63821e-20
5.78834e-21
6.34453e-22
6.16584e-23
5.35394e-24
4.18022e-25
2.95033e-26
1.89072e-27
1.10439e-28
5.89881e-30
2.88912e-31
1.30067e-32
5.39338e-34
2.06353e-35
7.2956e-37
2.38639e-38
7.22889e-40
2.02937e-41
5.28194e-43
1.27474e-44
2.85191e-46
5.91078e-48
1.13352e-49
2.00762e-51
3.27527e-53
4.90363e-55
6.70342e-57
8.31009e-59
9.25559e-61
9.14428e-63
7.8721e-65
5.7549e-67
3.43576e-69
1.57108e-71
4.8741e-74
7.41828e-77
4.33341e-18
1.03019e-18
2.03118e-19
3.3588e-20
4.7551e-21
5.8532e-22
6.3375e-23
6.09187e-24
5.23791e-25
4.05358e-26
2.83824e-27
1.8059e-28
1.04808e-29
5.56596e-31
2.71224e-32
1.21559e-33
5.02106e-35
1.91475e-36
6.75107e-38
2.20345e-39
6.66383e-41
1.8687e-42
4.86114e-44
1.17321e-45
2.62633e-47
5.44977e-49
1.04702e-50
1.85904e-52
3.0426e-54
4.57338e-56
6.28196e-58
7.83196e-60
8.78115e-62
8.74235e-64
7.59245e-66
5.60597e-68
3.38441e-70
1.56686e-72
4.92648e-75
7.59373e-78
4.55719e-19
1.06029e-19
2.04704e-20
3.32205e-21
4.6254e-22
5.60909e-23
5.99196e-24
5.68998e-25
4.83856e-26
3.70703e-27
2.57189e-28
1.62281e-29
9.34688e-31
4.92967e-32
2.38727e-33
1.06397e-34
4.37299e-36
1.66032e-37
5.83185e-39
1.89732e-40
5.72287e-42
1.60152e-43
4.15997e-45
1.00311e-46
2.24498e-48
4.66031e-50
8.96319e-52
1.59437e-53
2.61624e-55
3.94613e-57
5.4441e-59
6.82381e-61
7.70009e-63
7.72428e-65
6.7675e-67
5.04747e-69
3.08221e-71
1.44521e-73
4.60725e-76
7.19446e-79
4.56321e-20
1.03815e-20
1.96034e-21
3.11899e-22
4.26649e-23
5.09173e-24
5.36083e-25
5.02365e-26
4.22045e-27
3.1977e-28
2.19597e-29
1.37265e-30
7.83814e-32
4.10139e-33
1.97186e-34
8.73076e-36
3.56715e-37
1.34718e-38
4.70966e-40
1.52594e-41
4.58651e-43
1.27979e-44
3.31667e-46
7.98441e-48
1.78519e-49
3.70482e-51
7.12889e-53
1.2697e-54
2.08794e-56
3.15894e-58
4.37585e-60
5.51314e-62
6.26053e-64
6.32792e-66
5.59369e-68
4.21523e-70
2.60442e-72
1.23736e-74
4.00152e-77
6.33218e-80
4.34513e-21
9.6595e-22
1.78217e-22
2.77747e-23
3.72933e-24
4.37607e-25
4.53675e-26
4.19161e-27
3.47582e-28
2.60202e-29
1.76713e-30
1.09329e-31
6.18384e-33
3.20749e-34
1.52968e-35
6.72291e-37
2.72827e-38
1.02407e-39
3.5604e-41
1.14795e-42
3.43571e-44
9.55206e-46
2.46813e-47
5.92807e-49
1.32333e-50
2.74405e-52
5.28006e-54
9.41211e-56
1.55052e-57
2.35241e-59
3.27129e-61
4.14241e-63
4.73384e-65
4.82173e-67
4.30137e-69
3.27606e-71
2.04896e-73
9.86855e-76
3.23917e-78
5.19576e-81
3.92853e-22
8.53057e-23
1.53645e-23
2.3438e-24
3.08675e-25
3.55866e-26
3.63006e-27
3.30421e-28
2.70241e-29
1.99732e-30
1.34044e-31
8.20206e-33
4.59193e-34
2.35924e-35
1.11528e-36
4.862e-38
1.95842e-39
7.30104e-41
2.52275e-42
8.08898e-44
2.40916e-45
6.66976e-47
1.71729e-48
4.11304e-50
9.16263e-52
1.89758e-53
3.64985e-55
6.50963e-57
1.07404e-58
1.6338e-60
2.28066e-62
2.90272e-64
3.33866e-66
3.42772e-68
3.08694e-70
2.37734e-72
1.50592e-74
7.35741e-77
2.45261e-79
3.98891e-82
)
;

boundaryField
{
    leftWall
    {
        type            zeroGradient;
    }
    rightWall
    {
        type            zeroGradient;
    }
    lowerWall
    {
        type            zeroGradient;
    }
    atmosphere
    {
        type            inletOutlet;
        inletValue      nonuniform 0();
        value           nonuniform 0();
    }
    defaultFaces
    {
        type            empty;
    }
    procBoundary1to0
    {
        type            processor;
        value           nonuniform List<scalar> 
44
(
0.998593
0.999672
0.99999
0.999953
0.999871
0.999924
0.999981
0.999995
0.999996
0.813357
0.25734
0.0247203
0.00873502
0.00304739
0.00121204
0.000423432
0.000141822
4.51936e-05
1.37407e-05
4.25828e-06
4.04044e-06
4.04044e-06
1.19493e-06
3.38928e-07
9.2137e-08
2.41729e-08
6.11087e-09
1.50745e-09
3.62418e-10
9.89829e-11
2.96079e-11
1.08752e-11
3.09051e-12
6.63416e-13
1.42295e-13
2.98009e-14
5.94359e-15
1.11699e-15
1.9606e-16
3.2129e-17
4.95313e-18
7.18272e-19
9.69543e-20
1.21552e-20
)
;
    }
    procBoundary1to3
    {
        type            processor;
        value           nonuniform List<scalar> 
45
(
8.3258e-22
9.77684e-22
6.84815e-22
3.39008e-22
1.25411e-22
3.36853e-23
7.13033e-24
1.25334e-24
1.87089e-25
2.41565e-26
2.73489e-27
2.74351e-28
2.45891e-29
1.98239e-30
1.4457e-31
9.58223e-33
5.79557e-34
3.20969e-35
1.63252e-36
7.64535e-38
3.30408e-39
1.32025e-40
4.88583e-42
1.67692e-43
5.34446e-45
1.5832e-46
4.36256e-48
1.11879e-49
2.67094e-51
5.93562e-53
1.22733e-54
2.35915e-56
4.20908e-58
6.95455e-60
1.06066e-61
1.48635e-63
1.90169e-65
2.20203e-67
2.2796e-69
2.07351e-71
1.61565e-73
1.03726e-75
5.14474e-78
1.74324e-80
2.87632e-83
)
;
    }
}


// ************************************************************************* //
