/*--------------------------------*- C++ -*----------------------------------*\
| =========                 |                                                 |
| \\      /  F ield         | OpenFOAM: The Open Source CFD Toolbox           |
|  \\    /   O peration     | Version:  5.0                                   |
|   \\  /    A nd           | Web:      www.OpenFOAM.org                      |
|    \\/     M anipulation  |                                                 |
\*---------------------------------------------------------------------------*/
FoamFile
{
    version     2.0;
    format      ascii;
    class       surfaceScalarField;
    location    "0.2";
    object      alphaPhi10;
}
// * * * * * * * * * * * * * * * * * * * * * * * * * * * * * * * * * * * * * //

dimensions      [0 3 -1 0 0 0 0];

internalField   nonuniform List<scalar> 
3731
(
-5.71629e-06
1.25061e-05
-4.84108e-06
1.40231e-05
3.23111e-05
7.6939e-06
2.43728e-05
5.33989e-05
3.21097e-05
2.78976e-05
7.41695e-05
6.00072e-05
2.91873e-05
9.49737e-05
8.91946e-05
3.03494e-05
0.000116186
0.000119544
3.14845e-05
0.000137703
0.000151023
3.1355e-05
0.000158419
0.000182367
2.80234e-05
0.000175276
0.000210117
2.19513e-05
0.000179859
0.000232068
-4.28397e-30
6.02847e-31
-1.76628e-28
2.14765e-29
-8.20104e-28
9.38786e-29
-1.13567e-27
6.31369e-29
-8.73507e-28
-1.43359e-28
-2.03605e-28
-2.39844e-28
-1.54695e-29
-5.92339e-29
-7.57633e-31
-5.47768e-30
-3.15843e-32
-3.40667e-31
-1.20342e-33
-1.87684e-32
-3.96371e-35
-1.02198e-33
-3.24503e-37
-5.96762e-35
1.48793e-37
-3.77145e-36
2.4042e-38
-2.52102e-37
2.54883e-39
-1.62167e-38
2.2387e-40
-9.8401e-40
1.75698e-41
-5.63028e-41
1.2605e-42
-3.02369e-42
8.29987e-44
-1.47759e-43
5.0319e-45
-6.38942e-45
2.80886e-46
-2.18281e-46
1.44411e-47
-4.03881e-48
6.84548e-49
3.37352e-50
2.97255e-50
5.71684e-51
1.1739e-51
4.10343e-52
4.18581e-53
2.33541e-53
1.33864e-54
1.06643e-54
3.80235e-56
4.21272e-56
9.4646e-58
1.45629e-57
2.0302e-59
4.34695e-59
3.65552e-61
1.14341e-60
5.34845e-63
2.50707e-62
6.06399e-65
4.53081e-64
4.93943e-67
6.52656e-66
2.55185e-69
6.9543e-68
6.52696e-72
4.93895e-70
3.28235e-75
1.95399e-72
-2.60444e-78
2.81433e-75
-4.04288e-82
6.2895e-79
-1.35131e-80
-6.15319e-28
2.87817e-28
-3.5839e-26
1.42978e-26
-1.88285e-25
7.58226e-26
-2.51528e-25
5.56591e-26
-1.66565e-25
-4.60176e-26
-2.78453e-26
-6.13348e-26
-1.84573e-27
-1.25706e-26
-8.85448e-29
-1.05489e-27
-3.6826e-30
-6.43798e-29
-1.35746e-31
-3.47304e-30
-4.15085e-33
-1.7746e-31
-4.65553e-35
-9.11756e-33
9.00112e-36
-4.82403e-34
1.33179e-36
-2.66718e-35
1.28489e-37
-1.4581e-36
1.03893e-38
-7.67989e-38
7.5743e-40
-3.87028e-39
5.07961e-41
-1.84278e-40
3.14245e-42
-8.08147e-42
1.79353e-43
-3.14805e-43
9.44964e-45
-1.00331e-44
4.5942e-46
-1.95706e-46
2.0576e-47
3.10054e-48
8.46181e-49
5.98416e-49
3.17381e-50
4.19068e-50
1.08078e-51
2.20923e-51
3.31542e-53
9.63591e-53
9.07335e-55
3.6338e-54
2.18928e-56
1.19518e-55
4.58053e-58
3.43622e-57
8.14952e-60
8.58235e-59
1.1982e-61
1.82523e-60
1.39921e-63
3.23923e-62
1.22741e-65
4.64112e-64
7.43242e-68
5.08208e-66
2.70441e-70
3.91953e-68
4.58554e-73
1.86051e-70
1.99663e-76
4.13272e-73
-1.2139e-80
2.16243e-76
-3.41939e-79
-7.29938e-26
4.63218e-26
-4.27964e-24
2.45639e-24
-2.06872e-23
1.23532e-23
-2.5627e-23
8.41284e-24
-1.37281e-23
-6.21066e-24
-1.76484e-24
-6.54321e-24
-1.04614e-25
-1.11417e-24
-4.84538e-27
-8.45997e-26
-1.96033e-28
-4.93834e-27
-6.89329e-30
-2.55373e-28
-1.97345e-31
-1.22111e-29
-2.67092e-33
-5.63375e-31
2.3413e-34
-2.57368e-32
3.25337e-35
-1.20171e-33
2.77571e-36
-5.59081e-35
1.97612e-37
-2.52887e-36
1.27311e-38
-1.10485e-37
7.58537e-40
-4.59916e-39
4.19564e-41
-1.78005e-40
2.15423e-42
-6.1699e-42
1.02633e-43
-1.77523e-43
4.53303e-45
-3.26936e-45
1.85289e-46
3.87565e-47
6.98755e-48
7.75181e-48
2.41541e-49
5.02039e-49
7.61721e-51
2.42156e-50
2.17613e-52
9.74617e-52
5.5832e-54
3.40033e-53
1.27224e-55
1.04059e-54
2.5391e-57
2.79772e-56
4.36174e-59
6.56892e-58
6.29941e-61
1.3289e-59
7.41447e-63
2.27329e-61
6.82161e-65
3.19777e-63
4.62256e-67
3.54565e-65
2.11023e-69
2.90855e-67
5.636e-72
1.5934e-69
6.79202e-75
4.80076e-72
2.24388e-78
5.04567e-75
-1.4731e-78
-7.8872e-24
6.02964e-24
-3.87264e-22
2.84886e-22
-1.56765e-21
1.22109e-21
-1.77689e-21
6.98101e-22
-7.38066e-22
-6.72761e-22
-7.27558e-23
-4.85642e-22
-3.81292e-24
-6.28968e-23
-1.6644e-25
-4.10645e-24
-6.43157e-27
-2.21549e-25
-2.14105e-28
-1.08182e-26
-5.70484e-30
-4.8556e-28
-7.57911e-32
-2.05564e-29
4.65727e-33
-8.39021e-31
5.91186e-34
-3.43446e-32
4.44375e-35
-1.3944e-33
2.78393e-36
-5.50982e-35
1.58446e-37
-2.11009e-36
8.38263e-39
-7.73326e-38
4.14192e-40
-2.65027e-39
1.9119e-41
-8.18973e-41
8.23664e-43
-2.11984e-42
3.30641e-44
-3.59173e-44
1.23438e-45
3.42199e-46
4.27195e-47
6.7703e-47
1.36145e-48
4.03908e-48
3.97632e-50
1.79117e-49
1.05744e-51
6.65574e-51
2.53991e-53
2.15185e-52
5.45512e-55
6.13073e-54
1.03472e-56
1.54205e-55
1.70673e-58
3.4071e-57
2.39997e-60
6.54006e-59
2.80414e-62
1.07266e-60
2.63196e-64
1.46724e-62
1.89342e-66
1.61528e-64
9.73298e-69
1.357e-66
3.17672e-71
7.97804e-69
5.31625e-74
2.78601e-71
3.133e-77
4.29201e-74
7.07986e-78
-6.87272e-22
6.23735e-22
-2.78696e-20
2.37077e-20
-1.01424e-19
8.7636e-20
-9.88359e-20
4.00787e-20
-2.88119e-20
-6.59896e-20
-2.07624e-21
-2.577e-20
-9.43374e-23
-2.25887e-21
-3.83886e-24
-1.24724e-22
-1.40613e-25
-6.26341e-24
-4.40934e-27
-2.91212e-25
-1.08221e-28
-1.2408e-26
-1.22194e-30
-4.91765e-28
8.13694e-32
-1.84434e-29
8.84697e-33
-6.8847e-31
5.8594e-34
-2.51704e-32
3.2586e-35
-8.92339e-34
1.65126e-36
-3.05927e-35
7.80142e-38
-1.00263e-36
3.45755e-39
-3.0755e-38
1.43927e-40
-8.5311e-40
5.62183e-42
-1.99065e-41
2.05636e-43
-3.05993e-43
7.02986e-45
2.6293e-45
2.23827e-46
4.79032e-46
6.59255e-48
2.62416e-47
1.78758e-49
1.07225e-48
4.43496e-51
3.68727e-50
9.99169e-53
1.10793e-51
2.02535e-54
2.94688e-53
3.65237e-56
6.95375e-55
5.77888e-58
1.4495e-56
7.88352e-60
2.64345e-58
9.06739e-62
4.15491e-60
8.53595e-64
5.50683e-62
6.30679e-66
5.96109e-64
3.42404e-68
5.02069e-66
1.22222e-70
3.03255e-68
2.36868e-73
1.15323e-70
1.7903e-76
2.16465e-73
1.25537e-76
-4.57625e-20
4.67975e-20
-1.54782e-18
1.44863e-18
-5.41151e-18
4.74972e-18
-4.27608e-18
1.59012e-18
-6.76711e-19
-3.13202e-18
-3.64802e-20
-6.37545e-19
-1.50109e-21
-4.18162e-20
-5.86079e-23
-2.17561e-21
-2.06067e-24
-1.08939e-22
-6.09658e-26
-5.01058e-24
-1.35514e-27
-2.07854e-25
-9.91507e-30
-7.90674e-27
1.24118e-30
-2.79361e-28
1.10375e-31
-9.89687e-30
6.46984e-33
-3.36669e-31
3.23812e-34
-1.10279e-32
1.48075e-35
-3.47109e-34
6.31993e-37
-1.03873e-35
2.53636e-38
-2.90001e-37
9.59303e-40
-7.31039e-39
3.41771e-41
-1.5484e-40
1.14484e-42
-2.13917e-42
3.5993e-44
1.90852e-44
1.05822e-45
2.94821e-45
2.89028e-47
1.47831e-46
7.29863e-49
5.57688e-48
1.69408e-50
1.77991e-49
3.58853e-52
4.9861e-51
6.87768e-54
1.24192e-52
1.18027e-55
2.7572e-54
1.79055e-57
5.43547e-56
2.36318e-59
9.43146e-58
2.65775e-61
1.42048e-59
2.47643e-63
1.8193e-61
1.83425e-65
1.92223e-63
1.00911e-67
1.59769e-65
3.70448e-70
9.66272e-68
7.63068e-73
3.82613e-70
6.45125e-76
7.93746e-73
7.31311e-76
-2.6516e-18
2.72499e-18
-5.80919e-17
6.03445e-17
-1.4644e-16
1.37107e-16
-7.20951e-17
1.719e-17
-7.36221e-18
-4.13911e-17
-3.56689e-19
-6.03971e-18
-1.47895e-20
-4.00536e-19
-5.81696e-22
-2.258e-20
-2.00126e-23
-1.19289e-21
-5.58972e-25
-5.57998e-23
-1.08048e-26
-2.2996e-24
7.9131e-30
-8.56839e-26
1.54443e-29
-2.98548e-27
1.12431e-30
-1.0213e-28
5.90061e-32
-3.32446e-30
2.69987e-33
-1.03338e-31
1.13232e-34
-3.0599e-33
4.43414e-36
-8.54908e-35
1.63412e-37
-2.21541e-36
5.68399e-39
-5.15748e-38
1.866e-40
-1.00174e-39
5.77497e-42
-1.23541e-41
1.68208e-43
1.31419e-43
4.59499e-45
1.6189e-44
1.17013e-46
7.4242e-46
2.76502e-48
2.59547e-47
6.02919e-50
7.72277e-49
1.20499e-51
2.026e-50
2.18948e-53
4.74555e-52
3.58149e-55
9.94983e-54
5.2107e-57
1.86086e-55
6.64023e-59
3.07872e-57
7.26356e-61
4.446e-59
6.62965e-63
5.49334e-61
4.83256e-65
5.63434e-63
2.62987e-67
4.56741e-65
9.65621e-70
2.74728e-67
1.97329e-72
1.09169e-69
2.02997e-75
2.38565e-72
2.76116e-75
-1.2612e-16
1.21508e-16
-1.20429e-15
1.25414e-15
-1.23857e-15
7.7986e-16
-4.13209e-16
-1.28666e-16
-3.94032e-17
-2.05648e-16
-2.16033e-18
-3.13763e-17
-9.77125e-20
-2.62425e-18
-3.90999e-21
-1.6695e-19
-1.30673e-22
-9.11968e-21
-3.36515e-24
-4.2838e-22
-4.9363e-26
-1.75558e-23
1.15016e-27
-6.4291e-25
1.49573e-28
-2.27225e-26
9.0737e-30
-7.6319e-28
4.34848e-31
-2.42238e-29
1.84782e-32
-7.28257e-31
7.22364e-34
-2.06785e-32
2.63859e-35
-5.49853e-34
9.07196e-37
-1.347e-35
2.94467e-38
-2.9428e-37
9.02707e-40
-5.29935e-39
2.61168e-41
-5.74963e-41
7.12232e-43
8.21124e-43
1.82455e-44
7.91112e-44
4.36773e-46
3.32769e-45
9.72853e-48
1.08502e-46
2.00564e-49
3.03088e-48
3.80286e-51
7.49686e-50
6.58073e-53
1.66181e-51
1.02958e-54
3.30938e-53
1.43936e-56
5.90109e-55
1.77112e-58
9.34625e-57
1.87939e-60
1.29762e-58
1.66971e-62
1.54807e-60
1.18655e-64
1.53856e-62
6.31813e-67
1.21518e-64
2.27866e-69
7.20495e-67
4.61494e-72
2.84014e-69
5.78063e-75
6.62878e-72
8.54173e-75
-2.89357e-15
2.21818e-15
-6.25565e-15
5.44612e-15
-3.27381e-15
2.64461e-15
-1.14574e-15
-5.16228e-16
-1.43094e-16
-6.05338e-16
-1.00673e-17
-1.5009e-16
-4.91138e-19
-1.44844e-17
-1.9027e-20
-9.70318e-19
-5.91499e-22
-5.19179e-20
-1.30501e-23
-2.39409e-21
-6.43748e-26
-9.70643e-23
1.3946e-26
-3.59648e-24
1.095e-27
-1.27662e-25
5.76471e-29
-4.24321e-27
2.55991e-30
-1.32511e-28
1.02354e-31
-3.89366e-30
3.78168e-33
-1.07321e-31
1.30732e-34
-2.75191e-33
4.25497e-36
-6.45644e-35
1.30735e-37
-1.33917e-36
3.79412e-39
-2.24975e-38
1.03958e-40
-2.07525e-40
2.68674e-42
4.4515e-42
6.52732e-44
3.39205e-43
1.48421e-45
1.31667e-44
3.14599e-47
4.03856e-46
6.18572e-49
1.06874e-47
1.12146e-50
2.51483e-49
1.861e-52
5.32074e-51
2.80111e-54
1.01451e-52
3.7803e-56
1.7376e-54
4.50567e-58
2.65225e-56
4.64453e-60
3.56118e-58
4.01426e-62
4.1226e-60
2.77598e-64
3.98679e-62
1.43995e-66
3.07789e-64
5.03241e-69
1.78908e-66
9.99195e-72
6.91045e-69
1.44279e-74
1.69093e-71
2.29703e-74
-5.4623e-16
2.71913e-15
-3.0058e-15
7.02962e-15
-4.64139e-15
5.41128e-15
-1.99959e-15
2.34136e-15
-4.45003e-16
-1.10164e-15
-3.91903e-17
-5.56648e-16
-1.91657e-18
-6.41087e-17
-6.74455e-20
-4.16533e-18
-1.82321e-21
-2.09685e-19
-2.73357e-23
-9.51418e-21
8.04653e-25
-3.88835e-22
1.00657e-25
-1.50623e-23
6.10351e-27
-5.38006e-25
2.90239e-28
-1.78343e-26
1.21054e-29
-5.5226e-28
4.60243e-31
-1.59931e-29
1.62418e-32
-4.31873e-31
5.37124e-34
-1.07838e-32
1.67313e-35
-2.44672e-34
4.92086e-37
-4.85701e-36
1.36723e-38
-7.61569e-38
3.58772e-40
-5.50706e-40
8.88488e-42
2.03488e-41
2.06941e-43
1.2594e-42
4.51684e-45
4.54369e-44
9.2041e-47
1.32256e-45
1.74292e-48
3.34716e-47
3.04963e-50
7.56532e-49
4.89595e-52
1.54259e-50
7.14847e-54
2.84329e-52
9.38538e-56
4.72221e-54
1.09141e-57
7.01258e-56
1.1006e-59
9.19366e-58
9.32486e-62
1.04334e-59
6.31645e-64
9.93634e-62
3.18275e-66
7.55915e-64
1.06588e-68
4.30524e-66
2.05704e-71
1.61409e-68
3.38554e-74
4.08535e-71
5.68291e-74
1.7723e-05
0.000134469
0.0002316
1.77608e-05
1.23228e-05
2.43104e-05
0.00022549
1.49184e-05
5.72302e-06
1.50893e-05
0.000206637
1.80669e-05
6.21932e-06
8.61413e-06
0.000181112
2.30892e-05
5.26813e-06
3.50157e-06
0.000115654
2.63401e-05
2.6036e-06
9.43568e-07
1.00516e-05
1.91904e-05
5.72642e-07
3.58244e-07
4.08969e-06
6.55594e-06
2.37474e-07
1.36541e-07
1.74353e-06
2.49194e-06
9.32129e-08
4.55634e-08
6.41524e-07
1.19339e-06
3.29833e-08
2.05058e-07
4.6766e-07
5.611e-08
1.59059e-07
1.32817e-08
4.52989e-08
2.84924e-09
1.10147e-08
5.71885e-10
2.39943e-09
1.08846e-10
4.85927e-10
1.97893e-11
9.27243e-11
3.46179e-12
1.67555e-11
5.73753e-13
2.86574e-12
9.12173e-14
4.55008e-13
1.66337e-14
6.37223e-14
4.89355e-15
9.38568e-15
1.21502e-15
1.589e-15
1.82181e-16
2.46437e-16
2.78272e-17
3.43597e-17
4.19692e-18
4.48975e-18
6.12581e-19
5.47469e-19
8.61954e-20
6.12407e-20
1.16627e-20
6.08235e-21
1.51215e-21
4.94976e-22
1.8733e-22
2.38637e-23
2.21829e-23
-2.23211e-24
2.50964e-24
-9.2818e-25
-1.72892e-25
-1.34351e-13
1.57206e-05
-1.38393e-13
4.04134e-15
-2.68043e-15
-1.45231e-13
6.30059e-15
-8.98102e-15
-1.56689e-12
2.85863e-05
-1.81091e-12
2.64339e-13
-1.0708e-12
1.73287e-13
4.27365e-12
-8.60639e-13
6.599e-07
4.74996e-05
-6.147e-11
6.59962e-07
-7.73177e-11
1.11796e-11
3.4927e-11
-6.86063e-11
1.94671e-06
0.000111593
4.32868e-08
4.10421e-06
-4.76342e-10
4.3995e-08
1.32661e-10
-5.71687e-10
1.14981e-05
0.000117589
7.62697e-07
1.71798e-05
-7.08204e-10
8.30681e-07
4.11417e-09
-4.62298e-09
1.48095e-05
5.0808e-05
2.98317e-06
4.03643e-05
2.68161e-07
4.10549e-06
2.80219e-07
3.92888e-09
1.06363e-05
8.0306e-06
8.16849e-06
2.95245e-05
1.00888e-06
1.53839e-05
2.18601e-06
1.11785e-07
5.43144e-06
2.73115e-06
6.34922e-06
2.65007e-06
2.10816e-06
7.16749e-06
4.40695e-06
-1.66039e-07
2.0336e-06
1.13094e-06
2.40877e-06
7.37615e-07
3.01156e-06
1.26103e-07
8.42938e-07
1.25285e-06
9.58121e-07
3.72327e-07
1.0369e-06
2.30914e-07
7.72788e-07
2.9654e-09
-8.3471e-08
5.69858e-07
3.38173e-07
1.05719e-07
3.68136e-07
5.90563e-08
2.55878e-07
-3.89304e-09
-1.96648e-08
1.19607e-07
9.69945e-08
2.62718e-08
9.93253e-08
1.51001e-08
6.23733e-08
-1.22615e-09
-4.08451e-09
2.6798e-08
2.37628e-08
5.89913e-09
2.42079e-08
3.56839e-09
1.44496e-08
-1.75047e-10
-8.11376e-10
5.61455e-09
5.15545e-09
1.23347e-09
5.23931e-09
7.82769e-10
3.02811e-09
-3.52277e-12
-1.37969e-10
1.12689e-09
1.03362e-09
2.43231e-10
1.04748e-09
1.60563e-10
5.88874e-10
6.19075e-12
-2.11811e-11
2.19841e-10
1.94492e-10
4.56191e-11
1.96115e-10
3.12453e-11
1.07271e-10
2.64533e-12
-2.83548e-12
4.04329e-11
3.45984e-11
8.20484e-12
3.48142e-11
5.82136e-12
1.87366e-11
7.83971e-13
-2.6176e-13
7.03053e-12
5.82485e-12
1.41925e-12
5.84707e-12
1.04075e-12
3.11049e-12
2.05705e-13
7.97898e-15
1.1685e-12
9.16671e-13
2.33272e-13
9.18877e-13
1.81397e-13
4.79817e-13
5.68473e-14
2.07633e-14
1.89274e-13
1.2989e-13
4.37587e-14
1.35875e-13
3.80396e-14
7.44143e-14
1.57643e-14
9.12953e-15
2.95045e-14
1.89077e-14
8.44106e-15
2.05408e-14
8.0475e-15
1.12719e-14
6.31248e-15
3.70552e-15
5.30607e-15
2.8634e-15
2.09236e-15
3.15992e-15
2.06959e-15
2.04847e-15
1.56002e-15
7.74452e-16
9.00417e-16
4.46784e-16
3.89647e-16
4.94063e-16
3.7611e-16
2.94929e-16
2.42043e-16
1.09468e-16
1.24305e-16
6.06842e-17
5.58561e-17
6.75449e-17
5.26511e-17
3.87902e-17
3.37951e-17
1.5261e-17
1.61418e-17
7.75742e-18
7.93803e-18
8.51889e-18
7.31322e-18
4.80157e-18
4.59356e-18
2.04493e-18
1.9839e-18
9.43166e-19
1.09163e-18
1.0023e-18
9.80137e-19
5.60517e-19
5.9965e-19
2.62165e-19
2.3042e-19
1.06884e-19
1.4461e-19
1.10548e-19
1.2612e-19
6.15271e-20
7.50476e-20
3.21409e-20
2.52004e-20
1.1093e-20
1.8426e-20
1.1301e-20
1.55687e-20
6.30207e-21
8.9956e-21
3.76647e-21
2.58106e-21
1.01784e-21
2.25575e-21
1.04935e-21
1.84148e-21
5.94768e-22
1.03177e-21
4.21606e-22
2.45428e-22
7.54736e-23
2.6478e-22
8.49596e-23
2.08408e-22
5.05542e-23
1.13114e-22
4.50377e-23
2.13547e-23
3.0021e-24
2.96904e-23
5.37816e-24
2.25414e-23
3.68594e-24
1.18377e-23
4.58628e-24
1.65479e-24
-3.02536e-25
3.17078e-24
1.43575e-25
2.32821e-24
1.99457e-25
1.18246e-24
4.44646e-25
1.07379e-25
-9.67958e-26
-2.53986e-26
2.11919e-27
4.72698e-27
-4.86937e-14
4.14174e-14
-2.24728e-13
1.81789e-13
-9.37753e-14
-1.63136e-13
-8.85426e-15
-7.83961e-14
-1.04904e-15
-7.20094e-15
-1.18658e-16
-8.87511e-16
-5.64012e-18
-2.19845e-16
-1.68445e-19
-1.3892e-17
-3.40903e-21
-6.09395e-19
1.64241e-23
-2.62952e-20
7.13895e-24
-1.13769e-21
5.25127e-25
-4.60475e-23
2.73368e-26
-1.69134e-24
1.20866e-27
-5.69908e-26
4.79734e-29
-1.7774e-27
1.7506e-30
-5.14064e-29
5.9483e-32
-1.37528e-30
1.89623e-33
-3.37363e-32
5.69676e-35
-7.44418e-34
1.61647e-36
-1.41499e-35
4.33484e-38
-2.04113e-37
1.09854e-39
-8.92805e-40
2.6291e-41
7.90895e-41
5.9218e-43
4.08641e-42
1.25155e-44
1.37785e-43
2.4732e-46
3.83043e-45
4.54964e-48
9.33843e-47
7.74907e-50
2.04337e-48
1.2138e-51
4.0488e-50
1.73368e-53
7.2768e-52
2.23312e-55
1.18258e-53
2.55585e-57
1.72507e-55
2.54569e-59
2.23159e-57
2.13944e-61
2.51291e-59
1.44437e-63
2.39306e-61
7.23002e-66
1.83799e-63
2.33992e-68
1.05247e-65
5.06769e-71
3.86651e-68
8.24418e-74
9.94752e-71
1.39279e-73
-4.80486e-12
3.99502e-12
-7.29021e-12
2.62805e-12
-1.63121e-12
-5.36069e-12
-1.38905e-13
-1.55625e-12
-6.41199e-15
-1.39048e-13
-2.57374e-16
-5.19015e-15
-1.25225e-17
-5.97704e-16
-2.78917e-19
-4.20679e-17
-9.49981e-22
-1.6893e-18
3.84295e-22
-6.52232e-20
3.48771e-23
-2.74225e-21
2.07829e-24
-1.11842e-22
9.99263e-26
-4.20403e-24
4.19904e-27
-1.4412e-25
1.60255e-28
-4.53283e-27
5.64821e-30
-1.31282e-28
1.85464e-31
-3.48818e-30
5.71084e-33
-8.43102e-32
1.65682e-34
-1.81719e-33
4.54064e-36
-3.31674e-35
1.17677e-37
-4.31657e-37
2.88541e-39
1.00716e-40
6.69161e-41
2.59197e-40
1.46272e-42
1.14586e-41
3.00597e-44
3.62014e-43
5.78851e-46
9.63877e-45
1.04018e-47
2.27245e-46
1.73535e-49
4.8374e-48
2.67062e-51
9.36856e-50
3.76044e-53
1.65287e-51
4.79356e-55
2.64847e-53
5.45373e-57
3.82785e-55
5.42921e-59
4.93462e-57
4.59413e-61
5.57867e-59
3.15851e-63
5.39067e-61
1.63579e-65
4.27372e-63
5.56795e-68
2.59027e-65
1.40278e-70
1.04864e-67
2.17977e-73
2.55882e-70
3.57271e-73
-7.08001e-11
5.39818e-11
-6.13267e-11
2.75598e-12
-1.27719e-11
-4.96996e-11
-1.23367e-12
-1.33291e-11
-5.28686e-14
-1.33976e-12
-1.16078e-15
-5.72806e-14
-2.23452e-17
-1.64003e-15
-1.34714e-19
-1.42734e-16
3.41705e-20
-8.41313e-18
2.62707e-21
-3.25781e-19
1.57397e-22
-1.17576e-20
8.16305e-24
-4.24882e-22
3.64249e-25
-1.46209e-23
1.44181e-26
-4.6699e-25
5.22177e-28
-1.37815e-26
1.75419e-29
-3.75264e-28
5.49118e-31
-9.3461e-30
1.61328e-32
-2.09983e-31
4.47806e-34
-4.15628e-33
1.17835e-35
-6.79838e-35
2.94322e-37
-7.07578e-37
6.98112e-39
7.40825e-39
1.57e-40
7.73614e-40
3.33789e-42
2.96881e-41
6.68989e-44
8.75602e-43
1.25973e-45
2.22477e-44
2.21954e-47
5.06069e-46
3.6406e-49
1.04701e-47
5.52428e-51
1.98227e-49
7.69325e-53
3.43693e-51
9.73202e-55
5.44025e-53
1.10311e-56
7.80989e-55
1.09954e-58
1.00625e-56
9.3819e-61
1.14563e-58
6.58016e-63
1.12639e-60
3.55269e-65
9.2367e-63
1.31451e-67
5.96861e-65
2.66559e-70
2.74356e-67
5.80095e-73
7.06965e-70
9.37918e-73
-6.37566e-10
4.31274e-10
-4.94782e-10
1.66698e-11
-9.1527e-11
-4.82531e-10
-8.18473e-12
-9.86999e-11
-3.22705e-13
-9.17739e-12
-6.56124e-15
-3.53016e-13
-8.77748e-19
-6.91201e-15
6.49985e-18
-6.04946e-16
7.57575e-19
-6.59037e-17
3.75796e-20
-3.65806e-18
1.51444e-21
-1.23999e-19
6.22041e-23
-4.02313e-21
2.35207e-24
-1.23036e-22
8.11486e-26
-3.46874e-24
2.59231e-27
-9.00162e-26
7.73302e-29
-2.14726e-27
2.15702e-30
-4.67063e-29
5.64383e-32
-9.09909e-31
1.39681e-33
-1.53173e-32
3.29671e-35
-2.02629e-34
7.46727e-37
-1.2674e-36
1.63003e-38
4.20534e-38
3.41332e-40
2.33572e-39
6.82496e-42
7.56884e-41
1.29851e-43
2.00504e-42
2.34142e-45
4.69063e-44
3.98291e-47
9.97058e-46
6.3568e-49
1.94888e-47
9.45694e-51
3.51848e-49
1.30087e-52
5.8682e-51
1.63777e-54
9.01655e-53
1.86229e-56
1.26867e-54
1.87845e-58
1.61905e-56
1.63853e-60
1.84901e-58
1.19031e-62
1.85175e-60
6.79224e-65
1.57771e-62
2.75956e-67
1.0906e-64
6.60532e-70
5.64559e-67
6.01006e-73
1.86928e-69
2.63085e-72
-4.11961e-09
3.99133e-09
-2.25104e-09
2.53091e-09
-3.85791e-10
-6.85882e-10
-2.52566e-11
-5.08182e-10
-5.8803e-13
-4.33344e-11
-1.19543e-14
-1.07701e-12
-7.10804e-16
-3.66066e-14
5.46697e-17
-4.37745e-15
1.14012e-17
-3.55126e-16
6.06943e-19
-2.83253e-17
2.04319e-20
-1.18014e-18
7.51078e-22
-3.99557e-20
2.59629e-23
-1.22653e-21
8.17988e-25
-3.39403e-23
2.37768e-26
-8.48369e-25
6.42752e-28
-1.91584e-26
1.62188e-29
-3.88e-28
3.82447e-31
-6.90462e-30
8.43383e-33
-1.02696e-31
1.74467e-34
-1.08653e-33
3.41928e-36
-6.43395e-37
6.43378e-38
3.38606e-37
1.15534e-39
1.24233e-38
1.98277e-41
3.23089e-40
3.25309e-43
7.1212e-42
5.10162e-45
1.40612e-43
7.63963e-47
2.54974e-45
1.08964e-48
4.30136e-47
1.47339e-50
6.7953e-49
1.87584e-52
1.00712e-50
2.22624e-54
1.39384e-52
2.42533e-56
1.80559e-54
2.37906e-58
2.17496e-56
2.0502e-60
2.37863e-58
1.4965e-62
2.30541e-60
8.7618e-65
1.91062e-62
3.75827e-67
1.28722e-64
9.97122e-70
6.88386e-67
1.08633e-72
2.46373e-69
4.20463e-72
-2.25599e-09
1.51988e-08
-2.51375e-09
-2.9938e-09
-3.64786e-10
-1.30407e-08
-2.0857e-11
-2.51611e-09
-4.97139e-12
-1.71349e-10
-3.40395e-13
-7.79744e-12
-1.58118e-14
-5.37269e-13
-1.8058e-16
-3.98013e-14
5.49964e-17
-1.72797e-15
5.50648e-18
-1.59978e-16
1.94926e-19
-7.29979e-18
6.80434e-21
-2.54939e-19
2.31292e-22
-8.14833e-21
7.20752e-24
-2.3223e-22
2.06286e-25
-5.90329e-24
5.46374e-27
-1.33674e-25
1.34545e-28
-2.67131e-27
3.08931e-30
-4.5874e-29
6.62393e-32
-6.26034e-31
1.32921e-33
-4.81581e-33
2.50974e-35
5.57528e-35
4.46264e-37
3.5351e-36
7.45713e-39
1.05403e-37
1.17075e-40
2.45281e-39
1.72423e-42
4.91198e-41
2.37847e-44
8.77193e-43
3.06764e-46
1.41956e-44
3.69261e-48
2.09785e-46
4.14171e-50
2.84121e-48
4.32133e-52
3.53046e-50
4.18448e-54
4.02199e-52
3.74661e-56
4.22684e-54
3.08483e-58
4.0659e-56
2.30534e-60
3.53412e-58
1.51548e-62
2.82023e-60
8.30609e-65
2.02503e-62
3.45871e-67
1.26443e-64
9.22028e-70
6.67924e-67
1.0464e-72
2.47296e-69
4.40957e-72
4.59173e-09
1.49706e-07
8.7911e-09
-4.27705e-08
-6.01763e-10
-2.36179e-08
-3.14445e-10
-4.40543e-09
-3.40833e-11
-4.89038e-10
-2.16934e-12
-4.16405e-11
-1.13458e-13
-2.87525e-12
-5.04982e-15
-1.72071e-13
1.55384e-16
-8.9159e-15
2.82652e-17
-4.27826e-16
1.11872e-18
-2.57135e-17
3.85745e-20
-1.01031e-18
1.32236e-21
-3.20901e-20
4.1931e-23
-9.31386e-22
1.21889e-24
-2.42075e-23
3.26956e-26
-5.56925e-25
8.13751e-28
-1.11276e-26
1.88641e-29
-1.84344e-28
4.08035e-31
-2.17769e-30
8.2624e-33
-2.80164e-33
1.57309e-34
7.02348e-34
2.80402e-36
2.74053e-35
4.68353e-38
7.36608e-37
7.32028e-40
1.64399e-38
1.06859e-41
3.22159e-40
1.45303e-43
5.67431e-42
1.83406e-45
9.08246e-44
2.13926e-47
1.32748e-45
2.29246e-49
1.77331e-47
2.24035e-51
2.16078e-49
1.97814e-53
2.39032e-51
1.55973e-55
2.3829e-53
1.08081e-57
2.11958e-55
6.47263e-60
1.67309e-57
3.28807e-62
1.14966e-59
1.35061e-64
6.7032e-62
4.13997e-67
3.16654e-64
8.19689e-70
1.1254e-66
7.32267e-73
2.589e-69
3.43048e-72
-4.59261e-08
6.11159e-07
-2.13592e-08
-7.90529e-08
-4.2842e-09
-4.64746e-08
-5.88424e-10
-9.11775e-09
-5.9148e-11
-1.1362e-09
-4.54857e-12
-1.06067e-10
-2.94918e-13
-8.03203e-12
-1.57609e-14
-5.12246e-13
-4.89439e-16
-2.84546e-14
5.50921e-17
-1.39038e-15
4.33196e-18
-6.55182e-17
1.37375e-19
-2.66135e-18
4.6486e-21
-8.88222e-20
1.51006e-22
-2.62341e-21
4.50926e-24
-6.8826e-23
1.24228e-25
-1.58098e-24
3.17037e-27
-3.06775e-26
7.52013e-29
-4.5931e-28
1.66479e-30
-3.33802e-30
3.45085e-32
7.13076e-32
6.68948e-34
4.13931e-33
1.21299e-35
1.31979e-34
2.05736e-37
3.33883e-36
3.26177e-39
7.29076e-38
4.82686e-41
1.42012e-39
6.65275e-43
2.50652e-41
8.51434e-45
4.04081e-43
1.00774e-46
5.9717e-45
1.09714e-48
8.09616e-47
1.09096e-50
1.0053e-48
9.81593e-53
1.13882e-50
7.89264e-55
1.16951e-52
5.57695e-57
1.07857e-54
3.38368e-59
8.8162e-57
1.96193e-61
6.26079e-59
1.16269e-63
3.76656e-61
4.83536e-66
1.87921e-63
1.38993e-68
7.24442e-66
1.93791e-71
1.91785e-68
2.5428e-71
1.18903e-07
4.55476e-07
3.34211e-08
-5.69493e-08
5.66439e-09
-3.10683e-08
6.3619e-10
-6.07346e-09
5.62561e-11
-7.99848e-10
3.91369e-12
-7.98752e-11
2.4148e-13
-6.40549e-12
1.57934e-14
-4.25428e-13
1.06393e-15
-2.30146e-14
1.09547e-16
-1.16106e-15
7.55602e-18
-5.52141e-17
3.01915e-19
-2.24577e-18
1.06766e-20
-7.98997e-20
3.54559e-22
-2.51574e-21
1.08517e-23
-6.91101e-23
3.06764e-25
-1.61475e-24
8.03662e-27
-3.00614e-26
1.95619e-28
-3.39735e-28
4.43287e-30
3.28448e-30
9.36201e-32
3.32473e-31
1.84446e-33
1.2645e-32
3.39415e-35
3.63303e-34
5.83465e-37
8.85e-36
9.36435e-39
1.90584e-37
1.40164e-40
3.70055e-39
1.95304e-42
6.54686e-41
2.52666e-44
1.06128e-42
3.02378e-46
1.58044e-44
3.33085e-48
2.16283e-46
3.35442e-50
2.71536e-48
3.0613e-52
3.11593e-50
2.50237e-54
3.24908e-52
1.80276e-56
3.05191e-54
1.11925e-58
2.55052e-56
5.79776e-61
1.86339e-58
2.38464e-63
1.15947e-60
7.18054e-66
5.90155e-63
1.48863e-68
2.30624e-65
3.34376e-71
6.13845e-68
8.2087e-71
2.97528e-07
-2.34716e-08
4.01142e-08
-5.94314e-09
6.96612e-09
-7.79595e-09
8.88966e-10
-1.67592e-09
8.74378e-11
-2.34633e-10
7.00229e-12
-2.49172e-11
4.76294e-13
-2.12969e-12
2.77136e-14
-1.49557e-13
1.70005e-15
-8.11578e-15
1.25608e-16
-4.61709e-16
7.92811e-18
-2.41307e-17
3.36319e-19
-1.04485e-18
1.25081e-20
-3.87871e-20
4.32926e-22
-1.244e-21
1.37786e-23
-3.37537e-23
4.044e-25
-7.30362e-25
1.09767e-26
-1.00577e-26
2.75997e-28
8.848e-29
6.43715e-30
1.39396e-29
1.39627e-31
6.03806e-31
2.8208e-33
1.92583e-32
5.31118e-35
5.16047e-34
9.32192e-37
1.21647e-35
1.52467e-38
2.57782e-37
2.32161e-40
4.96852e-39
3.28563e-42
8.76832e-41
4.31106e-44
1.42197e-42
5.22586e-46
2.12216e-44
5.82486e-48
2.91357e-46
5.93305e-50
3.67294e-48
5.47553e-52
4.23586e-50
4.52506e-54
4.44564e-52
3.29615e-56
4.20552e-54
2.06971e-58
3.54214e-56
1.08466e-60
2.61004e-58
4.51592e-63
1.65263e-60
1.37715e-65
8.63287e-63
2.63677e-68
3.46464e-65
2.15598e-71
9.48021e-68
1.29068e-70
4.22109e-08
-8.1849e-09
1.16524e-08
-3.48179e-10
2.15871e-09
-8.25267e-10
2.88321e-10
-2.5289e-10
3.0323e-11
-4.13139e-11
2.63701e-12
-4.88825e-12
1.9474e-13
-4.46091e-13
1.24129e-14
-3.09426e-14
7.38982e-16
-1.65033e-15
6.36249e-17
-1.00613e-16
3.66698e-18
-5.39046e-18
1.5757e-19
-2.40309e-19
6.30147e-21
-9.11866e-21
2.30663e-22
-2.88507e-22
7.72755e-24
-7.11876e-24
2.37871e-25
-1.03477e-25
6.74894e-27
1.74181e-27
1.77116e-28
2.18872e-28
4.31418e-30
1.06724e-29
9.7504e-32
3.91107e-31
2.04795e-33
1.20638e-32
4.00073e-35
3.26667e-34
7.27091e-37
7.92726e-36
1.22899e-38
1.74424e-37
1.93036e-40
3.50451e-39
2.81296e-42
6.45735e-41
3.79381e-44
1.09371e-42
4.71935e-46
1.70411e-44
5.38921e-48
2.44093e-46
5.61299e-50
3.20641e-48
5.28651e-52
3.84655e-50
4.45113e-54
4.18559e-52
3.29773e-56
4.0999e-54
2.10271e-58
3.57085e-56
1.11756e-60
2.71743e-58
4.71508e-63
1.74817e-60
1.4556e-65
9.15004e-63
2.81722e-68
3.68345e-65
2.32471e-71
1.01175e-67
1.38544e-70
6.98177e-09
-1.91489e-09
1.78743e-09
-1.80732e-10
3.94347e-10
-1.40224e-12
5.86489e-11
-1.71705e-11
6.75468e-12
-4.0278e-12
6.25243e-13
-5.57751e-13
4.59581e-14
-5.39381e-14
3.29161e-15
-3.42716e-15
2.93333e-16
-2.24092e-16
2.19403e-17
-1.44495e-17
1.15695e-18
-7.68438e-19
5.3385e-20
-3.38691e-20
2.25689e-21
-1.19952e-21
8.67146e-23
-3.01835e-23
3.0395e-24
-2.09141e-25
9.75247e-26
3.51563e-26
2.88266e-27
2.7289e-27
7.88337e-29
1.34388e-28
1.99485e-30
5.30722e-30
4.67808e-32
1.79819e-31
1.01791e-33
5.38436e-33
2.05665e-35
1.44788e-34
3.85951e-37
3.53087e-36
6.72529e-39
7.85848e-38
1.08724e-40
1.60292e-39
1.6282e-42
3.00409e-41
2.25325e-44
5.17953e-43
2.8718e-46
8.21601e-45
3.35502e-48
1.19758e-46
3.56996e-50
1.59997e-48
3.4303e-52
1.95111e-50
2.94225e-54
2.15831e-52
2.21727e-56
2.14675e-54
1.43582e-58
1.89628e-56
7.73562e-61
1.46153e-58
3.3005e-63
9.57372e-61
1.02834e-65
5.12576e-63
2.00583e-68
2.10642e-65
1.66474e-71
5.8944e-68
8.17189e-71
1.19983e-09
-4.28572e-10
1.83146e-10
-4.54018e-11
4.6126e-11
-1.49394e-12
8.01902e-12
1.55073e-13
1.0005e-12
5.29137e-15
9.51685e-14
-1.94575e-14
8.29297e-15
-2.51059e-15
8.52892e-16
-2.11925e-16
8.41261e-17
-1.69697e-17
5.42355e-18
-1.06322e-18
2.88669e-19
-4.99581e-20
1.40981e-20
-1.47946e-21
6.21821e-22
9.66591e-24
2.48407e-23
5.25968e-24
9.05402e-25
4.46398e-25
3.03761e-26
2.65948e-26
9.38587e-28
1.29425e-27
2.67414e-29
5.41097e-29
7.0384e-31
1.99314e-30
1.71396e-32
6.56466e-32
3.86588e-34
1.95193e-33
8.0823e-36
5.27472e-35
1.56667e-37
1.30173e-36
2.81494e-39
2.94402e-38
4.6844e-41
6.11661e-40
7.20879e-43
1.16911e-41
1.02344e-44
2.05683e-43
1.33591e-46
3.32912e-45
1.59572e-48
4.94952e-47
1.73314e-50
6.7401e-49
1.69697e-52
8.37007e-51
1.48056e-54
9.41837e-53
1.13286e-56
9.51699e-55
7.43465e-59
8.52767e-57
4.05202e-61
6.65645e-59
1.74606e-63
4.41139e-61
5.48414e-66
2.38709e-63
1.07601e-68
9.89348e-66
8.9629e-72
2.78518e-68
3.88271e-71
2.39784e-10
-7.36261e-11
3.80063e-11
-9.21284e-12
4.91647e-12
-1.31005e-13
7.19267e-13
1.37371e-13
1.04032e-13
2.73439e-14
1.36546e-14
3.53531e-15
1.87573e-15
3.58545e-16
2.44697e-16
3.36138e-17
1.90856e-17
2.58642e-18
1.16417e-18
1.89214e-19
6.53229e-20
1.44179e-20
3.29795e-21
1.05584e-21
1.50733e-22
7.09679e-23
6.29616e-24
4.30797e-24
2.40377e-25
2.34562e-25
8.40714e-27
1.14322e-26
2.70079e-28
5.00198e-28
7.9867e-30
1.97321e-29
2.17818e-31
7.04852e-31
5.48708e-33
2.28902e-32
1.27825e-34
6.78218e-34
2.75583e-36
1.839e-35
5.50028e-38
4.57488e-37
1.01607e-39
1.0462e-38
1.7359e-41
2.20235e-40
2.73859e-43
4.27067e-42
3.9802e-45
7.62846e-44
5.31102e-47
1.2541e-45
6.47586e-49
1.89395e-47
7.16937e-51
2.61944e-49
7.14464e-53
3.30257e-51
6.33469e-55
3.77103e-53
4.91793e-57
3.8642e-55
3.26931e-59
3.5085e-57
1.80184e-61
2.77244e-59
7.83778e-64
1.85792e-61
2.48055e-66
1.01529e-63
4.89503e-69
4.24386e-66
4.09281e-72
1.20307e-68
1.68591e-71
4.7952e-11
-1.16648e-11
8.05354e-12
-1.68557e-12
1.02307e-12
-1.42737e-14
1.34652e-13
4.60564e-14
2.0778e-14
1.24434e-14
3.70045e-15
2.14734e-15
6.42328e-16
2.82444e-16
6.16858e-17
2.65827e-17
4.31232e-18
1.99136e-18
2.78415e-19
1.43262e-19
1.61766e-20
9.6897e-21
8.47509e-22
6.13862e-22
4.02049e-23
3.62111e-23
1.73379e-24
1.97233e-24
6.81972e-26
9.86967e-26
2.45405e-27
4.52378e-27
8.10036e-29
1.89643e-28
2.45829e-30
7.27011e-30
6.87264e-32
2.5506e-31
1.77285e-33
8.1996e-33
4.22481e-35
2.41904e-34
9.30837e-37
6.55924e-36
1.89679e-38
1.63691e-37
3.57403e-40
3.76392e-39
6.22221e-42
7.98015e-41
9.99355e-44
1.56038e-42
1.47724e-45
2.81269e-44
2.00284e-47
4.6685e-46
2.47883e-49
7.12e-48
2.78261e-51
9.94497e-50
2.80862e-53
1.26613e-51
2.5193e-55
1.45948e-53
1.9763e-57
1.50915e-55
1.32585e-59
1.38199e-57
7.36467e-62
1.10072e-59
3.22432e-64
7.42932e-62
1.02566e-66
4.08557e-64
2.03142e-69
1.71689e-66
1.70215e-72
4.88784e-69
6.86979e-72
9.18189e-12
-1.73486e-12
1.65906e-12
-2.53474e-13
2.24103e-13
9.30043e-15
3.13418e-14
1.48535e-14
6.72467e-15
4.92285e-15
1.39983e-15
9.02657e-16
1.61702e-16
1.04546e-16
1.32215e-17
8.92062e-18
9.82653e-19
7.12805e-19
6.53696e-20
5.22147e-20
3.90218e-21
3.51803e-21
2.10011e-22
2.18686e-22
1.02332e-23
1.2553e-23
4.53125e-25
6.64975e-25
1.82933e-26
3.24691e-26
6.75293e-28
1.45953e-27
2.28522e-29
6.03468e-29
7.10499e-31
2.29422e-30
2.0334e-32
8.02044e-32
5.36506e-34
2.57961e-33
1.30656e-35
7.63853e-35
2.93917e-37
2.08411e-36
6.10932e-39
5.24346e-38
1.17313e-40
1.2172e-39