/*--------------------------------*- C++ -*----------------------------------*\
| =========                 |                                                 |
| \\      /  F ield         | OpenFOAM: The Open Source CFD Toolbox           |
|  \\    /   O peration     | Version:  5.0                                   |
|   \\  /    A nd           | Web:      www.OpenFOAM.org                      |
|    \\/     M anipulation  |                                                 |
\*---------------------------------------------------------------------------*/
FoamFile
{
    version     2.0;
    format      ascii;
    class       volScalarField;
    location    "0.2";
    object      k;
}
// * * * * * * * * * * * * * * * * * * * * * * * * * * * * * * * * * * * * * //

dimensions      [0 2 -2 0 0 0 0];

internalField   nonuniform List<scalar> 
1915
(
0.0348062
0.0267107
0.10205
0.0641683
0.140297
0.0913748
0.172714
0.111609
0.204803
0.130967
0.23905
0.15117
0.274478
0.172035
0.307969
0.19202
0.337156
0.208977
0.362476
0.222194
0.0111895
0.0156821
0.0168693
0.0168131
0.0177984
0.0190073
0.0196091
0.019801
0.0197413
0.0195474
0.0192938
0.0190241
0.0187591
0.0185085
0.0182734
0.0180584
0.0178681
0.0176994
0.0175458
0.0174052
0.0172736
0.0171497
0.0170319
0.0169175
0.0168008
0.017012
0.0169408
0.0170811
0.0169232
0.0169918
0.0169718
0.0169395
0.0169101
0.016818
0.0168091
0.0168331
0.0168351
0.0167785
0.0142219
0.00860693
0.0108715
0.0212889
0.027082
0.0319636
0.0357034
0.0380837
0.0393698
0.0398629
0.0398412
0.039528
0.0390766
0.0385803
0.0380896
0.0376281
0.0372072
0.0368305
0.0364995
0.0362118
0.0359615
0.0357429
0.0355493
0.0353743
0.0352127
0.0350578
0.0349028
0.0347465
0.034475
0.0342893
0.0339501
0.0335644
0.0331054
0.0325892
0.0317396
0.0307448
0.0295009
0.0278226
0.0256101
0.0226921
0.0179895
0.00873298
0.0126203
0.0272107
0.0353056
0.0412942
0.0455639
0.0482853
0.0497434
0.0502718
0.0501937
0.0497733
0.0491987
0.0485868
0.0480016
0.0474716
0.0470062
0.0466031
0.0462563
0.0459585
0.0457017
0.045478
0.0452796
0.045099
0.044929
0.0447622
0.0445898
0.044401
0.0441711
0.0439017
0.0435547
0.0431141
0.0425411
0.0417948
0.0408055
0.0395157
0.0378234
0.0355822
0.0325943
0.0284894
0.0224127
0.0103978
0.0151614
0.0332286
0.0426549
0.0491644
0.053592
0.0562871
0.0576163
0.0579676
0.0576962
0.0570875
0.0563431
0.0555886
0.0548915
0.05428
0.0537599
0.0533232
0.0529575
0.0526503
0.0523898
0.0521652
0.0519665
0.0517849
0.0516116
0.0514378
0.0512537
0.0510472
0.0508022
0.0505011
0.0501187
0.0496256
0.0489827
0.0481406
0.0470358
0.0455875
0.0436832
0.0411646
0.0377944
0.0331515
0.0262278
0.01235
0.0182221
0.0397533
0.0502995
0.0571834
0.0615454
0.0639021
0.0648029
0.0647375
0.0640994
0.0631825
0.062186
0.0612301
0.0603767
0.059648
0.0590434
0.0585482
0.0581439
0.0578124
0.0575372
0.0573036
0.0570992
0.0569126
0.0567334
0.0565512
0.056355
0.0561317
0.0558653
0.0555358
0.0551181
0.0545802
0.0538818
0.0529711
0.0517816
0.0502261
0.0481858
0.0454917
0.0418846
0.0368977
0.0293665
0.0139522
0.0218947
0.0480638
0.0597087
0.0667534
0.0706321
0.0721345
0.0721618
0.0713456
0.0701057
0.06872
0.0673618
0.0661278
0.0650618
0.0641721
0.063448
0.0628657
0.0623994
0.0620248
0.06172
0.0614661
0.061247
0.0610487
0.0608586
0.0606646
0.060454
0.0602127
0.0599239
0.0595668
0.0591155
0.0585372
0.0577907
0.0568231
0.0555659
0.0539288
0.0517883
0.0489671
0.0451885
0.0399432
0.03193
0.0152589
0.0272072
0.0625992
0.0743807
0.0804368
0.0825316
0.0820305
0.0803854
0.0782988
0.0761243
0.0740565
0.0721978
0.0705928
0.0692489
0.0681503
0.0672698
0.0665705
0.0660182
0.0655809
0.0652308
0.064944
0.0647004
0.0644828
0.0642759
0.0640656
0.0638377
0.0635767
0.0632649
0.0628807
0.0623974
0.0617819
0.0609924
0.0599752
0.0586608
0.0569567
0.0547359
0.051814
0.0478987
0.0424428
0.0340296
0.0163298
0.0388076
0.0972803
0.102454
0.102993
0.0997154
0.094842
0.0901517
0.0860077
0.0824405
0.0794168
0.0768894
0.074806
0.0731126
0.0717556
0.0706805
0.069835
0.0691732
0.0686544
0.0682437
0.0679116
0.0676336
0.0673889
0.0671592
0.0669281
0.0666796
0.0663971
0.0660614
0.0656503
0.0651364
0.0644863
0.0636576
0.0625962
0.0612317
0.0594701
0.0571812
0.0541744
0.0501437
0.0445089
0.0357575
0.0172127
0.0712468
0.178048
0.157925
0.141048
0.124828
0.111752
0.102042
0.0947888
0.0892518
0.0849451
0.0815571
0.0788779
0.0767598
0.0750939
0.0737876
0.0727682
0.0719752
0.0713575
0.0708721
0.0704834
0.0701618
0.0698825
0.0696242
0.0693681
0.069096
0.0687899
0.0684295
0.0679915
0.0674482
0.0667655
0.0659006
0.0647991
0.0633898
0.0615772
0.0592284
0.0561472
0.0520154
0.0462254
0.0371857
0.0179446
0.157472
0.33491
0.251597
0.196844
0.158692
0.133215
0.116322
0.104796
0.0966565
0.0907152
0.0862654
0.0828714
0.080257
0.0782319
0.07666
0.0754417
0.0744985
0.0737668
0.0731945
0.0727391
0.0723658
0.0720453
0.0717533
0.0714681
0.0711696
0.0708381
0.070452
0.0699873
0.0694155
0.0687018
0.0678033
0.0666649
0.0652146
0.0633559
0.060953
0.0578049
0.0535831
0.0476569
0.0383701
0.0185542
0.38654
0.233206
0.41089
0.252071
0.436118
0.280228
0.457093
0.315878
0.465487
0.350742
0.464262
0.379621
0.459851
0.402334
0.453025
0.417765
0.442765
0.426048
0.425915
0.427306
0.418219
0.391818
0.347784
0.297687
0.253715
0.220984
0.19876
0.184064
0.174034
0.166684
0.160851
0.155914
0.151552
0.147604
0.143982
0.140635
0.13753
0.13464
0.131946
0.129429
0.127068
0.124835
0.12272
0.301329
0.379565
0.37811
0.344594
0.380073
1.00298
0.665938
0.539602
0.36036
1.02723
1.00828
0.567992
0.344207
0.836743
1.03454
0.609788
0.339904
0.664666
0.874266
0.645144
0.347944
0.541358
0.692557
0.594312
0.365278
0.46622
0.561338
0.519183
0.386113
0.432864
0.488941
0.478755
0.40465
0.426932
0.465228
0.475512
0.417959
0.431738
0.465091
0.492197
0.422497
0.43488
0.459772
0.487208
0.409338
0.423934
0.441064
0.459184
0.37288
0.39071
0.405014
0.415553
0.322207
0.340536
0.353001
0.358677
0.272916
0.288451
0.29872
0.302396
0.234308
0.245925
0.253906
0.256905
0.207512
0.215602
0.221424
0.223786
0.189677
0.195018
0.198901
0.200375
0.177507
0.180783
0.183017
0.183514
0.16863
0.170354
0.17126
0.170874
0.161652
0.162205
0.162086
0.16099
0.15583
0.155496
0.154608
0.152983
0.150774
0.14977
0.148317
0.146312
0.146277
0.144766
0.142904
0.140637
0.142221
0.140329
0.138172
0.135731
0.138531
0.136352
0.133988
0.131436
0.135155
0.132763
0.130254
0.127638
0.132055
0.129505
0.126901
0.124256
0.129198
0.126536
0.123872
0.121222
0.126559
0.123819
0.121124
0.118488
0.124113
0.121325
0.11862
0.116014
0.121837
0.119029
0.116333
0.113767
0.119704
0.116904
0.114238
0.111721
0.372817
0.470145
0.358427
0.261519
0.198743
0.158582
0.132854
0.116027
0.104688
0.0967734
0.0910674
0.0868464
0.0836648
0.0812331
0.0793639
0.0779243
0.0768139
0.0759548
0.0752848
0.0747539
0.0743215
0.0739541
0.0736236
0.0733058
0.0729782
0.0726194
0.0722068
0.0717151
0.0711151
0.0703717
0.0694412
0.0682681
0.0667797
0.0648781
0.0624252
0.0592156
0.054912
0.0488644
0.0393635
0.0190688
0.534718
0.520972
0.419158
0.318474
0.240413
0.186409
0.151112
0.128273
0.113263
0.103092
0.0959651
0.0908212
0.087004
0.0841245
0.081931
0.0802509
0.0789592
0.0779616
0.0771849
0.0765711
0.0760734
0.0756539
0.0752811
0.074927
0.0745679
0.0741802
0.0737401
0.0732211
0.0725933
0.0718209
0.0708597
0.0696536
0.0681292
0.066187
0.0636872
0.0604201
0.0560412
0.0498846
0.040197
0.0195032
0.518072
0.501007
0.445052
0.364929
0.281015
0.215036
0.170149
0.141015
0.122096
0.109513
0.100882
0.0947351
0.0902404
0.0868883
0.0843548
0.0824235
0.0809424
0.0797998
0.078911
0.0782094
0.0776425
0.0771675
0.0767491
0.0763567
0.0759643
0.0755467
0.0750784
0.074532
0.0738768
0.0730763
0.0720857
0.0708482
0.0692895
0.0673092
0.0647652
0.0614445
0.0569964
0.0507421
0.0408929
0.0198694
0.459237
0.459821
0.455301
0.403246
0.319398
0.243181
0.189032
0.153672
0.130878
0.115892
0.105687
0.0985165
0.0933347
0.0895054
0.0866291
0.0844447
0.0827725
0.0814832
0.0804803
0.079689
0.0790507
0.0785182
0.0780525
0.0776205
0.0771939
0.0767457
0.076249
0.0756754
0.0749933
0.0741655
0.0731466
0.071879
0.0702879
0.0682713
0.0656856
0.0623148
0.0578032
0.0514613
0.041472
0.020178
0.444952
0.439771
0.461645
0.434062
0.353829
0.269434
0.206797
0.165783
0.13931
0.121935
0.110221
0.102072
0.0962331
0.0919457
0.0887394
0.0863103
0.0844524
0.0830197
0.0819045
0.0810243
0.0803148
0.0797245
0.0792111
0.0787392
0.078278
0.077799
0.077274
0.0766736
0.0759653
0.075111
0.0740649
0.0727686
0.0711464
0.0690955
0.0664704
0.0630528
0.0584828
0.0520624
0.0419519
0.0204378
0.470439
0.448633
0.474511
0.45902
0.382103
0.292316
0.223002
0.176658
0.146781
0.127325
0.114302
0.105296
0.0988735
0.0941734
0.0906661
0.0880114
0.0859806
0.0844132
0.0831914
0.082226
0.0814477
0.0808011
0.0802406
0.0797292
0.0792339
0.0787246
0.0781718
0.0775452
0.0768113
0.0759315
0.0748592
0.0735355
0.0718838
0.0698002
0.0671379
0.0636767
0.0590531
0.0525625
0.0423473
0.0206563
0.468955
0.469694
0.4936
0.479529
0.403906
0.310371
0.235466
0.185067
0.152721
0.131756
0.117756
0.108086
0.101193
0.096151
0.0923877
0.089537
0.0873534
0.0856648
0.0843458
0.0833016
0.0824587
0.0817586
0.0811535
0.080604
0.0800758
0.0795371
0.0789574
0.0783053
0.0775468
0.0766426
0.0755453
0.0741954
0.0725155
0.070401
0.0677038
0.064202
0.0595292
0.0529759
0.0426706
0.0208399
0.46754
0.489069
0.511209
0.494264
0.415505
0.319197
0.24202
0.190036
0.156657
0.134973
0.120436
0.110352
0.103139
0.0978455
0.0938846
0.0908766
0.0885663
0.0867747
0.0853711
0.084257
0.0833559
0.0826065
0.0819599
0.0813749
0.0808154
0.0802487
0.0796432
0.0789669
0.0781849
0.0772573
0.0761361
0.0747614
0.0730549
0.0709112
0.0681813
0.0646417
0.0599242
0.053315
0.0429326
0.0209939
0.485112
0.507694
0.522167
0.496117
0.412254
0.316395
0.241467
0.191028
0.158332
0.136835
0.122254
0.112038
0.104671
0.0992322
0.0951417
0.0920217
0.0896157
0.0877426
0.0862697
0.0850966
0.0841449
0.0833523
0.0826684
0.0820508
0.0814625
0.0808696
0.08024
0.0795408
0.0787365
0.0777868
0.076643
0.0752447
0.0735131
0.071342
0.0685816
0.0650072
0.060249
0.0535903
0.0431422
0.021123
0.510095
0.520237
0.522344
0.478779
0.390792
0.301639
0.23409
0.188225
0.157812
0.137348
0.123194
0.113123
0.105775
0.100299
0.0961511
0.0929679
0.0905001
0.0885695
0.0870445
0.0858248
0.0848315
0.0840024
0.0832862
0.0826398
0.0820254
0.0814086
0.0807566
0.0800361
0.0792109
0.0782404
0.0770754
0.0756549
0.0738998
0.0717031
0.0689144
0.0653082
0.0605132
0.0538108
0.0433072
0.0212311
0.505243
0.511246
0.493804
0.434263
0.352707
0.278103
0.221853
0.182521
0.155467
0.136662
0.123317
0.113632
0.106457
0.101049
0.0969133
0.0937159
0.091221
0.0892579
0.087699
0.0864455
0.0854208
0.0845626
0.0838197
0.0831486
0.0825113
0.0818731
0.0812008
0.0804606
0.0796162
0.0786262
0.0774414
0.0760003
0.0742233
0.0720029
0.0691882
0.0655529
0.060725
0.0539844
0.0434344
0.0213215
0.472346
0.466718
0.433559
0.374749
0.30928
0.251895
0.207551
0.175138
0.151835
0.135022
0.122737
0.113619
0.106746
0.101495
0.097437
0.0942716
0.0917832
0.0898121
0.0882369
0.0869639
0.085918
0.0850385
0.0842746
0.0835833
0.0829266
0.0822697
0.0815793
0.0808213
0.0799592
0.0789514
0.0777483
0.0762881
0.0744908
0.0722487
0.0694102
0.0657486
0.0608915
0.0541177
0.0435294
0.021397
0.417135
0.399635
0.363366
0.317459
0.269689
0.22736
0.193276
0.167117
0.147442
0.1327
0.1216
0.113164
0.106687
0.101665
0.0977387
0.094646
0.0921944
0.090238
0.0886647
0.0873854
0.0863286
0.0854354
0.0846565
0.0839495
0.0832769
0.0826042
0.081898
0.0811242
0.0802462
0.0792221
0.0780022
0.0765245
0.0747087
0.0724467
0.0695867
0.0659017
0.0610188
0.0542165
0.0435971
0.0214601
0.35417
0.335803
0.306413
0.271675
0.237162
0.206142
0.180091
0.159145
0.142709
0.129947
0.120054
0.112356
0.106333
0.101593
0.0978403
0.0948538
0.0924655
0.090545
0.0889895
0.0877164
0.0866581
0.0857587
0.0849705
0.0842524
0.0835676
0.0828819
0.0821623
0.0813747
0.0804825
0.0794438
0.0782087
0.0767151
0.0748825
0.0726027
0.0697235
0.0660177
0.0611123
0.0542859
0.0436418
0.0215126
0.297765
0.283644
0.262396
0.237418
0.212086
0.188731
0.168488
0.151634
0.137943
0.126973
0.118235
0.111284
0.105744
0.101317
0.0977683
0.094914
0.0926106
0.0907432
0.0892194
0.0879635
0.0869127
0.0860139
0.085222
0.0844971
0.0838035
0.0831077
0.082377
0.0815776
0.080673
0.0796213
0.0783727
0.0768649
0.0750172
0.0727215
0.0698253
0.0661014
0.0611766
0.0543301
0.0436669
0.0215561
0.253891
0.244137
0.229175
0.21118
0.192405
0.174549
0.158577
0.144863
0.133398
0.123967
0.116279
0.110038
0.10498
0.100879
0.0975511
0.0948468
0.0926443
0.0908438
0.0893633
0.0881341
0.0870983
0.0862065
0.0854159
0.0846883
0.0839893
0.0832861
0.0825466
0.0817375
0.0808222
0.0797592
0.0784987
0.0769782
0.0751173
0.0728076
0.0698966
0.066157
0.0612159
0.0543527
0.0436755
0.0215921
0.221891
0.215057
0.20425
0.190938
0.1767
0.162797
0.150026
0.138772
0.129128
0.121013
0.114262
0.108682
0.104088
0.100314
0.0972155
0.094672
0.0925815
0.0908584
0.0894304
0.0882357
0.0872216
0.0863422
0.0855573
0.0848308
0.0841295
0.0834215
0.0826754
0.0818584
0.0809342
0.0798616
0.0785906
0.0770592
0.0751868
0.0728649
0.0699411
0.0661882
0.0612334
0.0543569
0.04367
0.0216215
0.198796
0.193578
0.185354
0.175135
0.164038
0.152995
0.142638
0.133317
0.125164
0.118167
0.112242
0.107266
0.103111
0.0996547
0.0967863
0.0944086
0.0924371
0.0907986
0.0894298
0.0882759
0.0872889
0.0864266
0.0856514
0.0849293
0.0842283
0.083518
0.0827674
0.0819442
0.0810128
0.0799321
0.0786523
0.0771115
0.0752292
0.0728969
0.0699624
0.0661983
0.0612323
0.0543455
0.0436526
0.0216452
0.181783
0.177383
0.17076
0.162609
0.153719
0.144768
0.136248
0.128452
0.121515
0.115465
0.110261
0.105829
0.102082
0.098929
0.0962858
0.0940744
0.0922251
0.0906756
0.0893709
0.0882623
0.0873066
0.0864651
0.085703
0.0849881
0.08429
0.0835794
0.0828262
0.0819987
0.0810617
0.0799743
0.0786872
0.0771385
0.0752479
0.0729069
0.0699634
0.0661902
0.0612153
0.0543206
0.0436248
0.0216637
0.168836
0.164851
0.159252
0.152521
0.145212
0.137816
0.130706
0.124118
0.118178
0.112925
0.108348
0.104402
0.101028
0.0981604
0.0957336
0.0936855
0.0919586
0.0905001
0.0892623
0.0882023
0.087281
0.0864634
0.0857169
0.0850116
0.0843186
0.0836096
0.0828555
0.0820252
0.081084
0.0799914
0.0786985
0.0771433
0.0752458
0.0728977
0.0699469
0.0661664
0.0611845
0.0542841
0.0435883
0.0216777
0.158656
0.154899
0.149992
0.144269
0.138119
0.131897
0.125882
0.120259
0.115135
0.110556
0.106521
0.103007
0.0999717
0.0973685
0.0951466
0.0932562
0.0916496
0.0902821
0.0891126
0.0881029
0.0872182
0.0864265
0.0856979
0.0850041
0.084318
0.0836122
0.0828587
0.0820271
0.081083
0.0799866
0.078689
0.0771287
0.0752257
0.0728719
0.0699153
0.0661291
0.061142
0.0542378
0.0435442
0.0216874
0.150418
0.146811
0.142401
0.137419
0.132139
0.126819
0.121664
0.116818
0.112368
0.108357
0.104791
0.101658
0.0989289
0.0965692
0.0945392
0.0927989
0.0913087
0.0900308
0.0889293
0.0879707
0.0871239
0.0863596
0.0856503
0.0849696
0.0842918
0.0835907
0.0828392
0.0820074
0.0810618
0.0799627
0.0786616
0.0770974
0.0751902
0.0728319
0.0698709
0.0660804
0.0610894
0.054183
0.0434934
0.0216932
0.143591
0.140106
0.136072
0.131654
0.127044
0.122429
0.117959
0.113745
0.109854
0.106324
0.103164
0.100366
0.0979124
0.0957749
0.0939231
0.0923242
0.0909453
0.0897541
0.0887195
0.0878118
0.0870033
0.0862672
0.0855783
0.0849119
0.0842436
0.0835484
0.0827999
0.0819691
0.081023
0.0799223
0.0786189
0.0770519
0.0751414
0.0727799
0.0698155
0.0660218
0.0610283
0.054121
0.0434368
0.0216952
0.137823
0.134449
0.130718
0.126742
0.12266
0.118606
0.11469
0.110994
0.10757
0.10445
0.101641
0.0991392
0.0969311
0.0949956
0.0933079
0.0918411
0.0905675
0.0894593
0.0884895
0.0876319
0.0868615
0.086154
0.085486
0.0848347
0.0841767
0.0834883
0.0827438
0.0819151
0.0809694
0.079868
0.0785632
0.0769942
0.0750816
0.0727177
0.0697509
0.0659551
0.0609599
0.0540527
0.0433752
0.0216936
0.132872
0.129608
0.126128
0.12251
0.118854
0.115254
0.111792
0.108526
0.105496
0.102725
0.100221
0.0979799
0.0959915
0.0942387
0.0927014
0.091357
0.0901821
0.0891526
0.088245
0.0874359
0.0867029
0.0860238
0.0853771
0.0847413
0.0840944
0.0834134
0.0826738
0.0818478
0.0809034
0.0798022
0.0784968
0.0769267
0.0750126
0.0726471
0.0696787
0.0658815
0.0608855
0.0539791
0.0433091
0.0216885
0.128569
0.125415
0.12215
0.11883
0.115524
0.112299
0.109213
0.106307
0.103611
0.101141
0.0989018
0.0968904
0.0950977
0.0935097
0.0921095
0.0908779
0.0897948
0.0888394
0.0879908
0.0872283
0.0865316
0.0858805
0.085255
0.0846349
0.0839994
0.0833265
0.0825923
0.0817698
0.0808273
0.0797269
0.0784216
0.076851
0.0749362
0.0725697
0.0696004
0.0658023
0.060806
0.053901
0.0432391
0.0216801
0.12479
0.121745
0.11867
0.115602
0.11259
0.109679
0.106909
0.104309
0.101899
0.0996881
0.0976799
0.0958708
0.0942523
0.0928125
0.0915367
0.0904085
0.0894104
0.0885241
0.0877312
0.0870131
0.0863513
0.0857274
0.0851228
0.0845184
0.0838946
0.0832302
0.0825019
0.0816832
0.0807432
0.0796443
0.0783396
0.0767691
0.074854
0.0724871
0.0695172
0.0657187
0.0607224
0.0538192
0.0431656
0.0216684
0.121444
0.118506
0.115602
0.112753
0.109991
0.107347
0.104846
0.102507
0.100342
0.0983568
0.0965507
0.0949199
0.0934565
0.0921496
0.0909864
0.0899526
0.0890328
0.0882107
0.0874699
0.0867937
0.0861653
0.0855676
0.0849833
0.0843945
0.0837824
0.0831266
0.0824046
0.0815903
0.0806532
0.0795561
0.0782524
0.0766825
0.0747675
0.0724004
0.0694303
0.0656316
0.0606356
0.0537342
0.0430892
0.0216535
0.11846
0.115629
0.11288
0.110223
0.107678
0.105264
0.102994
0.100881
0.098928
0.0971383
0.0955094
0.094036
0.0927103
0.0915225
0.090461
0.0895131
0.0886649
0.0879021
0.0872098
0.086573
0.0859762
0.0854036
0.084839
0.0842655
0.0836651
0.0830181
0.0823024
0.0814928
0.080559
0.079464
0.0781617
0.0765926
0.074678
0.072311
0.0693407
0.0655419
0.0605462
0.0536467
0.0430103
0.0216356
0.115786
0.11306
0.110452
0.107967
0.105612
0.103398
0.101329
0.0994104
0.0976427
0.0960242
0.0945508
0.0932164
0.0920132
0.0909319
0.0899619
0.0890918
0.0883091
0.0876008
0.0869537
0.0863537
0.0857866
0.0852379
0.0846923
0.0841336
0.0835446
0.0829064
0.0821973
0.0813925
0.0804621
0.0793696
0.0780689
0.0765007
0.0745866
0.0722198
0.0692495
0.0654505
0.060455
0.0535572
0.0429293
0.0216146
0.113378
0.110754
0.108279
0.105948
0.103762
0.101722
0.099829
0.0980809
0.0964748
0.0950063
0.0936697
0.0924581
0.0913638
0.0903776
0.08949
0.0886902
0.0879671
0.0873089
0.0867034
0.0861376
0.0855986
0.0850725
0.0845449
0.0840006
0.0834229
0.0827933
0.0820908
0.0812909
0.0803641
0.0792742
0.0779752
0.0764081
0.0744945
0.0721278
0.0691574
0.0653581
0.0603626
0.0534663
0.0428466
0.0215909
0.111202
0.108679
0.106327
0.104136
0.1021
0.100215
0.0984766
0.096878
0.0954137
0.0940769
0.0928609
0.091758
0.0907603
0.0898591
0.0890453
0.0883092
0.0876403
0.0870279
0.0864606
0.0859267
0.0854138
0.084909
0.0843987
0.0838682
0.0833013
0.0826802
0.0819843
0.0811894
0.0802663
0.0791789
0.0778818
0.0763157
0.0744026
0.072036
0.0690652
0.0652655
0.0602697
0.0533745
0.0427626
0.0215643
0.10923
0.106806
0.104569
0.102506
0.100606
0.0988586
0.097256
0.0957891
0.0944494
0.0932288
0.0921191
0.0911124
0.0902006
0.0893753
0.0886278
0.087949
0.0873293
0.0867587
0.0862267
0.0857222
0.0852338
0.0847491
0.0842551
0.0837377
0.0831814
0.0825686
0.0818791
0.0810891
0.0801697
0.0790849
0.0777895
0.0762245
0.0743118
0.0719451
0.0689737
0.0651731
0.0601767
0.0532822
0.0426775
0.0215352
)
;

boundaryField
{
    leftWall
    {
        type            kqRWallFunction;
        value           nonuniform 0();
    }
    rightWall
    {
        type            kqRWallFunction;
        value           nonuniform List<scalar> 
43
(
0.00860693
0.00873298
0.0103978
0.01235
0.0139522
0.0152589
0.0163298
0.0172127
0.0179446
0.0185542
0.0190688
0.0195032
0.0198694
0.020178
0.0204378
0.0206563
0.0208399
0.0209939
0.021123
0.0212311
0.0213215
0.021397
0.0214601
0.0215126
0.0215561
0.0215921
0.0216215
0.0216452
0.0216637
0.0216777
0.0216874
0.0216932
0.0216952
0.0216936
0.0216885
0.0216801
0.0216684
0.0216535
0.0216356
0.0216146
0.0215909
0.0215643
0.0215352
)
;
    }
    lowerWall
    {
        type            kqRWallFunction;
        value           nonuniform List<scalar> 
66
(
0.0348062
0.0267107
0.0267107
0.0641683
0.0913748
0.111609
0.130967
0.15117
0.172035
0.19202
0.208977
0.222194
0.301329
0.379565
0.37811
0.344594
0.0111895
0.0108715
0.0126203
0.0151614
0.0182221
0.0218947
0.0272072
0.0388076
0.0712468
0.157472
0.0111895
0.0156821
0.0168693
0.0168131
0.0177984
0.0190073
0.0196091
0.019801
0.0197413
0.0195474
0.0192938
0.0190241
0.0187591
0.0185085
0.0182734
0.0180584
0.0178681
0.0176994
0.0175458
0.0174052
0.0172736
0.0171497
0.0170319
0.0169175
0.0168008
0.017012
0.0169408
0.0170811
0.0169232
0.0169918
0.0169718
0.0169395
0.0169101
0.016818
0.0168091
0.0168331
0.0168351
0.0167785
0.0142219
0.00860693
)
;
    }
    atmosphere
    {
        type            inletOutlet;
        inletValue      nonuniform 0();
        value           nonuniform 0();
    }
    defaultFaces
    {
        type            empty;
    }
    procBoundary1to0
    {
        type            processor;
        value           nonuniform List<scalar> 
44
(
0.0376655
0.0987567
0.127711
0.156045
0.188069
0.223447
0.25996
0.2972
0.338848
0.386239
0.43124
0.462619
0.477011
0.478122
0.470475
0.45992
0.449326
0.437795
0.420561
0.393901
0.398191
0.398191
0.358498
0.312591
0.269167
0.234101
0.20869
0.191333
0.179607
0.171413
0.165303
0.160396
0.156199
0.152449
0.149011
0.145816
0.142823
0.14001
0.137361
0.13486
0.13249
0.130227
0.128062
0.125989
)
;
    }
    procBoundary1to3
    {
        type            processor;
        value           nonuniform List<scalar> 
45
(
0.120718
0.117702
0.114926
0.112306
0.109853
0.10744
0.105112
0.102984
0.101038
0.0992592
0.0976351
0.0961534
0.0948029
0.0935733
0.092455
0.0914393
0.0905178
0.0896824
0.0889248
0.0882368
0.0876098
0.0870347
0.0865023
0.0860026
0.0855253
0.0850596
0.0845937
0.0841151
0.0836103
0.0830641
0.0824594
0.0817762
0.0809911
0.0800752
0.0789931
0.0776993
0.0761352
0.0742228
0.0718556
0.0688834
0.0650817
0.0600841
0.0531899
0.0425919
0.0215036
)
;
    }
}


// ************************************************************************* //
