/*--------------------------------*- C++ -*----------------------------------*\
| =========                 |                                                 |
| \\      /  F ield         | OpenFOAM: The Open Source CFD Toolbox           |
|  \\    /   O peration     | Version:  5.0                                   |
|   \\  /    A nd           | Web:      www.OpenFOAM.org                      |
|    \\/     M anipulation  |                                                 |
\*---------------------------------------------------------------------------*/
FoamFile
{
    version     2.0;
    format      ascii;
    class       volScalarField;
    location    "0.2";
    object      nut;
}
// * * * * * * * * * * * * * * * * * * * * * * * * * * * * * * * * * * * * * //

dimensions      [0 2 -1 0 0 0 0];

internalField   nonuniform List<scalar> 
1915
(
9.88533e-05
8.93566e-05
0.000496301
0.000177631
0.000815396
0.000213636
0.00111143
0.000235279
0.00137773
0.000253497
0.001606
0.000270905
0.00179016
0.000288061
0.00192857
0.000304425
0.00202476
0.00031889
0.0020893
0.000330555
0.000196352
0.000274825
0.000297248
6.94014e-05
7.18663e-05
7.43592e-05
7.55747e-05
7.59353e-05
7.57585e-05
7.52831e-05
7.46658e-05
7.40041e-05
7.3354e-05
7.27915e-05
7.23236e-05
7.18904e-05
7.14993e-05
7.11488e-05
7.08277e-05
7.0533e-05
7.02553e-05
6.99921e-05
6.97396e-05
6.95094e-05
6.92841e-05
0.000302241
6.94424e-05
0.000303243
6.93068e-05
7.00792e-05
6.99355e-05
0.000300045
6.94784e-05
6.90934e-05
0.000296366
0.000296116
0.000296448
0.000293742
0.000248061
0.00019915
7.96267e-05
0.000364612
0.000442817
0.00049528
0.000559369
0.000605516
0.000636261
0.00065411
0.000662009
0.000662935
0.000659405
0.000653344
0.000646076
0.000638329
0.000630378
0.0006224
0.000614839
0.000608096
0.000602295
0.000597392
0.000593256
0.000589713
0.000586629
0.000583827
0.00058137
0.000592235
0.000580328
0.000589598
0.000574723
0.000571012
0.000564799
0.000564835
0.000542454
0.000525153
0.000512776
0.000494644
0.000475945
0.000455583
0.000342548
0.000300962
8.59762e-05
0.000483404
0.000690469
0.000847371
0.000979228
0.00108679
0.00117094
0.00123254
0.00127371
0.00129765
0.00130804
0.00130852
0.00130223
0.00129156
0.00127823
0.00126359
0.00124891
0.00123517
0.00122284
0.00121205
0.00120266
0.00119442
0.00118699
0.00118002
0.00117316
0.00116706
0.00115905
0.00115039
0.00113796
0.00112262
0.00110261
0.00107648
0.00104208
0.000997829
0.000941658
0.000872257
0.000781166
0.000655998
0.000439265
7.58628e-05
9.43275e-05
0.000578598
0.000854869
0.00106585
0.00124911
0.00141114
0.00155161
0.00166788
0.0017583
0.00182325
0.001865
0.00188721
0.00189415
0.00188996
0.00187828
0.00186217
0.00184412
0.00182596
0.00180884
0.00179326
0.00177926
0.00176662
0.00175493
0.00174362
0.00173206
0.00171953
0.00170498
0.00168726
0.00166489
0.00163633
0.00159975
0.0015529
0.00149331
0.00141775
0.0013225
0.00120263
0.00104799
0.000839221
0.000528571
8.28034e-05
0.000103721
0.000651709
0.000961863
0.00120151
0.00141827
0.00162243
0.00181324
0.00198483
0.00213097
0.00224737
0.0023328
0.00238908
0.00242031
0.00243181
0.002429
0.00241683
0.00239935
0.00237961
0.00235966
0.0023406
0.00232284
0.00230631
0.00229056
0.0022749
0.00225844
0.00224005
0.00221835
0.0021917
0.00215816
0.00211552
0.00206127
0.00199252
0.00190597
0.00179762
0.00166253
0.00149377
0.00127958
0.000997942
0.00060357
8.80578e-05
0.000114605
0.000717492
0.00104312
0.00129593
0.00153
0.00176165
0.0019919
0.00221314
0.00241483
0.00258721
0.00272398
0.0028234
0.002888
0.00292326
0.00293594
0.00293283
0.00291973
0.00290117
0.00288032
0.0028591
0.00283844
0.0028185
0.00279892
0.00277888
0.00275729
0.00273273
0.00270343
0.00266728
0.00262183
0.0025643
0.00249153
0.0024
0.00228572
0.002144
0.00196902
0.00175271
0.00148216
0.00113424
0.000665387
9.21213e-05
0.000130163
0.00080532
0.00113483
0.00138607
0.0016191
0.00186113
0.00211675
0.00237787
0.00263028
0.00285855
0.00305031
0.00319883
0.00330365
0.00336933
0.00340327
0.0034139
0.00340875
0.00339398
0.0033741
0.00335202
0.00332928
0.00330644
0.00328321
0.00325877
0.00323183
0.0032007
0.00316325
0.00311695
0.00305885
0.00298563
0.00289359
0.00277861
0.00263613
0.00246089
0.00224645
0.00198406
0.00166016
0.00125133
0.000716331
9.53305e-05
0.000160588
0.000963763
0.00127716
0.00150333
0.00171172
0.0019448
0.00221017
0.00249924
0.00279462
0.00307535
0.00332247
0.00352321
0.00367288
0.00377398
0.00383399
0.0038624
0.00386839
0.00385984
0.00384269
0.00382096
0.00379696
0.00377167
0.003745
0.00371613
0.00368362
0.00364555
0.00359944
0.00354236
0.00347092
0.00338132
0.00326935
0.00313042
0.00295951
0.00275091
0.00249779
0.00219103
0.00181685
0.00135211
0.000758521
9.79031e-05
0.000222345
0.00124265
0.00150468
0.00166649
0.00182308
0.00202777
0.00228785
0.00259272
0.00292211
0.00324988
0.00355033
0.00380403
0.00400109
0.00414094
0.0042306
0.00428001
0.00429985
0.00429961
0.00428677
0.00426652
0.004242
0.00421468
0.00418476
0.00415144
0.00411318
0.00406783
0.00401261
0.00394422
0.00385886
0.00375232
0.00361996
0.0034568
0.00325747
0.00301597
0.00272526
0.00237609
0.00195482
0.00143898
0.000793648
9.99907e-05
0.00031978
0.0016704
0.00182063
0.0018716
0.00195404
0.00211579
0.0023589
0.00266928
0.00302417
0.00339287
0.00374314
0.00404863
0.00429348
0.00447406
0.00459564
0.00466834
0.00470403
0.00471378
0.00470654
0.00468871
0.00466431
0.00463536
0.00460235
0.00456459
0.00452042
0.00446751
0.00440281
0.00432269
0.00422299
0.00409911
0.00394611
0.00375868
0.00353121
0.00325756
0.00293062
0.00254127
0.00207618
0.00151392
0.00082302
0.000101701
0.00216867
0.00043195
0.00226352
0.000565929
0.00237884
0.000748136
0.00250292
0.000994259
0.00260524
0.00127563
0.0026792
0.00155215
0.00274362
0.0018064
0.00280071
0.00202484
0.00283786
0.0022007
0.00283962
0.00232483
0.00238664
0.00237899
0.00232409
0.00229121
0.00236534
0.00261455
0.00307778
0.00375657
0.00460934
0.0055604
0.00652418
0.00742941
0.00823102
0.00890939
0.00946335
0.00990234
0.0102405
0.0104929
0.010674
0.0107967
0.010872
0.0109094
0.0109175
0.000310025
0.000347239
0.000344728
0.000322069
0.00049766
0.00144743
0.00154463
0.00147555
0.000559354
0.00157842
0.00200936
0.00192318
0.00063439
0.00139161
0.00201147
0.00194694
0.000750739
0.00121443
0.00176355
0.00184041
0.000920555
0.00110372
0.00149359
0.00162128
0.00114364
0.00108858
0.00131769
0.00144202
0.00140183
0.00118624
0.00128091
0.0013945
0.00166121
0.00138223
0.00139032
0.00149337
0.00188938
0.00162155
0.00159017
0.00168594
0.00205541
0.00183651
0.00178406
0.0018541
0.00213383
0.00197006
0.0019158
0.00195926
0.00212949
0.00201145
0.00197408
0.00201246
0.00210296
0.00201095
0.0019951
0.00204766
0.00214752
0.00205899
0.00206217
0.00214398
0.00234777
0.00224637
0.00226384
0.00238098
0.00275956
0.00263685
0.00266178
0.00280899
0.00340033
0.00325528
0.00327844
0.00344014
0.00423967
0.00407779
0.00408948
0.0042445
0.00520368
0.00503429
0.00502757
0.00515669
0.00619973
0.00603197
0.00600445
0.00609617
0.00714601
0.00698607
0.00693916
0.00699054
0.00798849
0.00783884
0.00777574
0.00778982
0.00870211
0.00856233
0.0084863
0.00846872
0.00928345
0.00915136
0.00906492
0.00902163
0.00974179
0.00961453
0.00951931
0.00945549
0.0100922
0.00996695
0.00986395
0.00978373
0.0103513
0.0102257
0.0101155
0.0100221
0.0105348
0.0104071
0.0102904
0.0101864
0.010657
0.0105262
0.0104036
0.0102911
0.0107302
0.0105957
0.010468
0.010349
0.0107647
0.0106267
0.0104948
0.0103709
0.0107692
0.0106282
0.0104931
0.0103658
0.00108391
0.00208585
0.00214997
0.00208227
0.0020897
0.00220619
0.00242716
0.00273646
0.00311012
0.00351428
0.00391061
0.00426566
0.0045579
0.00478
0.00493479
0.00503223
0.0050852
0.0051062
0.0051056
0.00509097
0.00506723
0.00503698
0.00500104
0.00495879
0.00490854
0.0048478
0.00477326
0.00468099
0.00456653
0.00442497
0.00425108
0.00403936
0.00378404
0.00347896
0.00311711
0.00268962
0.00218371
0.00157911
0.000847868
0.000103127
0.00187918
0.00233509
0.00232807
0.00223115
0.00220382
0.00228899
0.0024906
0.00279712
0.00318595
0.00362143
0.00406012
0.00446183
0.00480068
0.00506376
0.00525174
0.00537432
0.00544519
0.00547811
0.00548477
0.00547386
0.00545115
0.00541983
0.00538105
0.00533421
0.0052777
0.00520886
0.00512417
0.00501942
0.00488987
0.00473039
0.00453553
0.00429965
0.00401696
0.00368136
0.00328606
0.00282258
0.00227883
0.0016358
0.000868915
0.000104319
0.00212761
0.0023244
0.00233532
0.00229873
0.00228369
0.00235566
0.0025449
0.00285113
0.00325471
0.00371921
0.00419639
0.0046435
0.00502651
0.00532841
0.00554802
0.00569483
0.00578319
0.00582799
0.00584203
0.00583504
0.00581354
0.00578127
0.00573964
0.00568818
0.00562532
0.00554824
0.00545322
0.00533583
0.00519113
0.00501376
0.00479815
0.00453861
0.00422938
0.00386455
0.00343763
0.00294064
0.00236224
0.00168473
0.000886635
0.000105317
0.00200122
0.00213193
0.00225373
0.00231531
0.00233473
0.00240365
0.00258636
0.002897
0.00331731
0.0038103
0.00432782
0.00481791
0.00524146
0.00557857
0.00582686
0.00599577
0.00610028
0.00615617
0.00617722
0.00617399
0.00615366
0.0061204
0.0060759
0.00601981
0.00595053
0.00586513
0.00575972
0.00562969
0.00546991
0.00527489
0.00503898
0.0047565
0.00442182
0.00402926
0.00357274
0.00304483
0.00243497
0.00172673
0.00090149
0.000106153
0.00180195
0.00194681
0.00216091
0.0023082
0.00236396
0.00243286
0.00261283
0.0029306
0.00337445
0.00390422
0.00446255
0.0049924
0.00545164
0.00581895
0.00609163
0.00627936
0.00639773
0.00646326
0.00649044
0.00649048
0.00647104
0.00643666
0.00638918
0.00632841
0.00625269
0.00615896
0.0060432
0.00590065
0.00572603
0.00551378
0.00525822
0.00495374
0.00459489
0.0041763
0.00369233
0.00313614
0.00249796
0.00176258
0.000913865
0.000106855
0.00164871
0.00183798
0.0021018
0.00229694
0.00237584
0.00244311
0.00262225
0.00295985
0.00343945
0.00401069
0.00460914
0.00517425
0.0056629
0.00605402
0.00634554
0.00654779
0.00667694
0.00675002
0.00678201
0.0067845
0.00676551
0.00672976
0.0066791
0.00661358
0.0065314
0.00642941
0.00630345
0.00614863
0.00595957
0.00573067
0.00545628
0.00513091
0.00474934
0.00430655
0.00379736
0.00321555
0.00255211
0.00179293
0.000924088
0.000107444
0.00154925
0.00178866
0.00208202
0.00229275
0.00237612
0.00244573
0.00263718
0.0030046
0.00352637
0.00414104
0.0047766
0.00537039
0.00588045
0.00628763
0.0065914
0.00680305
0.00693924
0.00701731
0.0070524
0.00705626
0.00703701
0.00699945
0.00694551
0.00687518
0.00678659
0.00667646
0.00654052
0.00637379
0.00617083
0.00592602
0.00563377
0.00528877
0.00488605
0.00442098
0.00388885
0.00328403
0.00259826
0.0018184
0.000932437
0.000107938
0.00155251
0.00181337
0.00210212
0.00231052
0.00238935
0.00246461
0.0026788
0.00308477
0.0036522
0.00430804
0.00497374
0.00558678
0.00610836
0.00652266
0.00683132
0.0070467
0.00718581
0.00726596
0.00730222
0.0073062
0.00728596
0.00724603
0.00718857
0.00711337
0.00701843
0.00690034
0.00675475
0.00657658
0.00636036
0.00610048
0.00579148
0.00542821
0.00500601
0.00452061
0.00396781
0.00334253
0.0026372
0.00183954
0.000939153
0.000108353
0.00166861
0.00191008
0.00216531
0.00235047
0.00242115
0.00251421
0.0027683
0.00322275
0.00383512
0.00452374
0.00520765
0.00582735
0.00634897
0.00676069
0.00706652
0.00727976
0.00741749
0.0074967
0.00753204
0.00753478
0.00751258
0.0074699
0.00740869
0.00732858
0.00722737
0.00710158
0.00694672
0.00675766
0.00652892
0.00625493
0.00593035
0.00555026
0.00511028
0.00460654
0.00403528
0.00339198
0.00266967
0.00185685
0.000944447
0.000108701
0.00184849
0.00204213
0.00225617
0.00240206
0.00247467
0.00261349
0.00292942
0.00343906
0.00408902
0.00479563
0.00548147
0.00609309
0.00660244
0.00700178
0.00729721
0.00750262
0.00763481
0.00771013
0.00774252
0.00774265
0.00771759
0.00767169
0.00760652
0.00752145
0.00741412
0.00728091
0.00711724
0.00691792
0.00667747
0.0063904
0.00605149
0.00565605
0.0052
0.00467985
0.00409229
0.00343327
0.00269638
0.00187078
0.000948506
0.000108993
0.00199465
0.00217238
0.00234149
0.00245738
0.00257034
0.00278945
0.00318242
0.00374446
0.00441747
0.00512315
0.00579288
0.00638137
0.00686662
0.00724449
0.00752264
0.00771508
0.00783796
0.00790669
0.00793428
0.00793037
0.00790177
0.00785222
0.00778289
0.00769286
0.00757959
0.0074393
0.00726732
0.00705843
0.00680713
0.00650804
0.00615608
0.00574677
0.00527635
0.00474167
0.00413984
0.00346726
0.00271799
0.00188175
0.000951495
0.000109238
0.00208245
0.00224494
0.0023973
0.0025432
0.00274262
0.00306202
0.00353228
0.00413423
0.00481177
0.00549736
0.00613428
0.00668638
0.00713737
0.00748612
0.00774123
0.00791641
0.00802682
0.00808667
0.00810763
0.00809877
0.00806599
0.00801242
0.00793878
0.00784385
0.00772486
0.00757788
0.00739814
0.00718038
0.00691915
0.00660912
0.00624538
0.00582367
0.00534051
0.0047931
0.00417892
0.00349476
0.0027351
0.00189013
0.000953558
0.000109443
0.00212276
0.00228034
0.00247519
0.00270962
0.00301825
0.00343565
0.00396899
0.00459192
0.00525499
0.00590393
0.00649475
0.00700021
0.00740925
0.00772312
0.00795086
0.00810554
0.00820097
0.00824999
0.00826328
0.00824868
0.00821122
0.00815335
0.00807533
0.00797559
0.00785115
0.0076979
0.00751099
0.00728511
0.00701484
0.00669495
0.00632069
0.00588801
0.00539368
0.00483523
0.00421046
0.00351653
0.00274828
0.00189627
0.000954825
0.000109614
0.00217579
0.0023729
0.00264072
0.00298263
0.0034002
0.00389904
0.00447293
0.00509558
0.0057273
0.00632687
0.00686215
0.00731421
0.00767638
0.0079516
0.00814909
0.0082809
0.00835975
0.008397
0.00840185
0.00838097
0.00833847
0.00827614
0.00819375
0.00808938
0.00795979
0.00780072
0.00760723
0.00737398
0.00709559
0.00676691
0.00638333
0.00594102
0.00543701
0.00486908
0.00423535
0.0035333
0.00275805
0.00190048
0.000955408
0.000109758
0.00231856
0.00258286
0.00293345
0.00336341
0.00386304
0.00441961
0.00501413
0.00562022
0.00620816
0.00675013
0.00722461
0.00761946
0.00793204
0.00816687
0.00833296
0.00844132
0.00850305
0.008528
0.00852398
0.00849651
0.00844882
0.00838201
0.00829534
0.00818655
0.00805216
0.00788776
0.00768829
0.00744842
0.00716278
0.00682633
0.0064346
0.00598393
0.00547159
0.00489563
0.00425442
0.0035457
0.00276485
0.00190302
0.000955408
0.000109878
0.00261164
0.00294597
0.00336858
0.0038617
0.00440621
0.00498201
0.00556738
0.00613931
0.00667536
0.0071564
0.00756909
0.00790712
0.0081709
0.00836601
0.00850111
0.00858613
0.00863075
0.00864332
0.00863036
0.00859626
0.00854339
0.00847218
0.00838142
0.0082685
0.00812969
0.00796043
0.0077556
0.00750983
0.0072178
0.00687454
0.00647573
0.0060179
0.00549849
0.00491579
0.00426842
0.00355433
0.00276912
0.00190414
0.000954911
0.000109977
0.003086
0.00347259
0.00394021
0.00446275
0.005016
0.00557801
0.0061287
0.00664961
0.00712461
0.0075412
0.00789175
0.00817396
0.00839038
0.00854711
0.00865232
0.00871481
0.00874284
0.0087434
0.00872174
0.00868121
0.00862334
0.00854795
0.00845336
0.00833662
0.0081938
0.00802018
0.00781057
0.0075596
0.00726198
0.00691283
0.00650794
0.00604401
0.00551867
0.00493041
0.00427804
0.00355971
0.00277121
0.00190405
0.000953992
0.000110059
0.00373887
0.00414589
0.00462224
0.00513734
0.00566566
0.00618647
0.00668275
0.00714043
0.00754834
0.00789881
0.00818813
0.00841662
0.00858804
0.00870859
0.00878573
0.00882707
0.00883954
0.00882882
0.00879897
0.00875241
0.00868987
0.0086106
0.00851249
0.0083923
0.00824588
0.00806839
0.00785459
0.00759907
0.00729661
0.00694239
0.00653234
0.00606329
0.00553303
0.00494024
0.0042839
0.00356233
0.00277145
0.00190293
0.000952715
0.000110126
0.0045336
0.00492458
0.0053732
0.00584789
0.00632423
0.00678376
0.00721252
0.00759992
0.00793842
0.00822361
0.00845433
0.00863241
0.00876216
0.00884947
0.00890094
0.00892299
0.00892129
0.00890029
0.008863
0.00881094
0.00874418
0.00866142
0.00856016
0.0084369
0.0082873
0.00810641
0.00788895
0.00762951
0.00732289
0.00696437
0.00654997
0.00607666
0.00554239
0.00494597
0.00428655
0.00356259
0.00277012
0.00190094
0.000951136
0.000110179
0.0054084
0.00575247
0.00614476
0.0065553
0.00696181
0.0073482
0.00770296
0.00801802
0.00828827
0.00851139
0.00868768
0.00881973
0.00891188
0.00896944
0.00899806
0.009003
0.00898876
0.00895869
0.00891484
0.00885796
0.00878748
0.00870166
0.00859765
0.00847171
0.00831934
0.00813552
0.0079149
0.00765209
0.00734194
0.00697979
0.00656177
0.00608497
0.00554747
0.00494822
0.00428648
0.00356085
0.00276747
0.00189821
0.000949302
0.000110219
0.00629351
0.00657173
0.00689117
0.00722495
0.00755337
0.00786249
0.00814266
0.00838754
0.00859359
0.00875971
0.00888695
0.00897811
0.00903721
0.00906884
0.00907765
0.00906786
0.00904285
0.00900502
0.00895559
0.00889461
0.00882098
0.00873255
0.0086262
0.00849797
0.00834324
0.0081569
0.00793358
0.00766792
0.00735478
0.00698961
0.00656861
0.00608897
0.00554892
0.0049475
0.00428411
0.00355743
0.00276369
0.00189486
0.000947253
0.000110248
0.00712838
0.00733452
0.0075763
0.00783077
0.00808098
0.00831492
0.00852446
0.0087045
0.00885248
0.00896796
0.00905229
0.00910812
0.00913894
0.00914857
0.00914071
0.00911859
0.00908464
0.00904041
0.00898639
0.00892205
0.00884585
0.00875528
0.00864699
0.00851684
0.00836011
0.00817164
0.00794605
0.00767797
0.00736234
0.00699466
0.00657123
0.00608934
0.00554731
0.0049443
0.0042798
0.00355259
0.00275897
0.00189098
0.000945022
0.000110267
0.00787155
0.00800887
0.00817684
0.0083567
0.00853428
0.00869945
0.0088454
0.00896798
0.00906527
0.00913719
0.00918505
0.0092112
0.0092185
0.00921001
0.00918855
0.00915645
0.00911534
0.00906602
0.00900839
0.00894143
0.00886321
0.00877096
0.0086611
0.00852938
0.008371
0.00818075
0.00795324
0.00768315
0.00736545
0.00699571
0.00657031
0.00608665
0.00554313
0.00493901
0.00427387
0.00354656
0.00275345
0.00188665
0.000942639
0.000110276
0.00850205
0.008579
0.00868192
0.00879602
0.00890984
0.00901509
0.00910614
0.00917966
0.00923419
0.00926977
0.00928758
0.00928951
0.00927785
0.0092549
0.00922271
0.00918284
0.00913622
0.00908306
0.00902274
0.00895385
0.00887414
0.00878062
0.00866955
0.00853658
0.00837685
0.00818512
0.00795602
0.00768425
0.00736483
0.00699341
0.00656644
0.00608141
0.00553681
0.00493198
0.00426659
0.00353953
0.00274727
0.00188196
0.000940129
0.000110275
0.00901535
0.00904214
0.0090906
0.00914945
0.00920971
0.00926479
0.00931018
0.00934324
0.00936285
0.00936908
0.00936287
0.0093457
0.00931925
0.00928519
0.00924487
0.00919924
0.00914863
0.00909274
0.00903057
0.00896036
0.00887964
0.00878522
0.00867326
0.00853932
0.00837849
0.00818555
0.00795513
0.00768196
0.00736113
0.00698834
0.00656014
0.00607407
0.00552872
0.00492351
0.00425817
0.00353168
0.00274053
0.00187695
0.000937514
0.000110265
0.0094177
0.00940426
0.00940878
0.00942289
0.00943976
0.00945429
0.00946298
0.00946378
0.0094558
0.0094391
0.00941437
0.00938266
0.00934515
0.00930293
0.00925679
0.00920714
0.00915386
0.00909623
0.00903293
0.00896195
0.00888063
0.00878565
0.00867306
0.00853838
0.00837669
0.00818275
0.00795123
0.0076769
0.0073549
0.00698101
0.00655183
0.006065
0.00551918
0.00491386
0.00424883
0.00352313
0.00273333
0.00187169
0.000934812
0.000110245
0.00972125
0.0096763
0.00964633
0.00962529
0.00960811
0.00959095
0.00957113
0.00954707
0.00951808
0.00948413
0.00944568
0.0094034
0.00935803
0.00931017
0.00926017
0.009208
0.00915316
0.00909462
0.00903081
0.00895952
0.00887794
0.00878266
0.00866967
0.00853446
0.00837208
0.00817733
0.00794489
0.00766959
0.00734663
0.00697183
0.00654189
0.00605452
0.00550844
0.00490323
0.00423873
0.00351402
0.00272574
0.00186621
0.000932042
0.000110218
0.00994048
0.00987128
0.00981491
0.00976703
0.00972396
0.00968283
0.00964164
0.00959916
0.0095548
0.00950846
0.00946035
0.00941084
0.00936028
0.0093089
0.00925665
0.00920318
0.00914769
0.00908893
0.0090251
0.00895387
0.00887232
0.00877697
0.00866376
0.00852816
0.00836525
0.00816982
0.00793661
0.00766048
0.00733671
0.00696118
0.00653065
0.00604291
0.00549676
0.00489182
0.004228
0.00350445
0.00271784
0.00186055
0.000929219
0.000110181
0.01009
0.0100025
0.00992643
0.00985866
0.00979656
0.00973799
0.00968144
0.00962592
0.0095709
0.00951617
0.00946175
0.00940773
0.00935414
0.00930092
0.00924772
0.00919392
0.00913852
0.00908005
0.0090166
0.00894572
0.00886442
0.00876915
0.00865586
0.00852
0.00835666
0.00816067
0.0079268
0.00764997
0.0073255
0.00694936
0.00651838
0.0060304
0.0054843
0.00487977
0.00421678
0.00349451
0.00270969
0.00185476
0.000926358
0.000110137
0.0101836
0.0100826
0.00999217
0.00991019
0.00983466
0.009764
0.00969699
0.0096328
0.00957091
0.00951101
0.00945293
0.00939653
0.00934162
0.00928786
0.00923471
0.00918134
0.00912656
0.0090688
0.00900602
0.0089357
0.0088548
0.00875974
0.00864647
0.00851043
0.00834674
0.00815026
0.00791581
0.00763836
0.00731329
0.00693664
0.0065053
0.0060172
0.00547126
0.00486724
0.00420516
0.00348428
0.00270135
0.00184886
0.000923472
0.000110084
0.0102332
0.0101226
0.0100222
0.00993059
0.00984614
0.00976761
0.00969402
0.00962461
0.00955881
0.00949623
0.00943653
0.0093794
0.00932444
0.00927114
0.00921878
0.00916637
0.00911262
0.00905584
0.00899393
0.00892432
0.00884393
0.00874917
0.00863597
0.00849982
0.00833584
0.00813893
0.00790395
0.00762594
0.00730034
0.00692324
0.00649162
0.00600346
0.00545776
0.00485434
0.00419326
0.00347382
0.00269286
0.00184289
0.000920574
0.000110024
0.0102493
0.0101322
0.0100254
0.00992765
0.00983776
0.00975468
0.00967749
0.00960548
0.00953802
0.00947463
0.00941483
0.00935817
0.00930409
0.00925195
0.00920089
0.00914983
0.00909737
0.00904176
0.00898086
0.00891204
0.00883221
0.0087378
0.00862472
0.00848848
0.00832423
0.00812693
0.00789146
0.00761294
0.00728684
0.00690935
0.0064775
0.00598935
0.00544394
0.00484117
0.00418114
0.00346322
0.00268427
0.00183688
0.000917675
0.000109957
0.0102405
0.0101195
0.0100089
0.00990784
0.0098152
0.00973004
0.0096515
0.00957883
0.00951136
0.0094485
0.00938969
0.00933433
0.00928178
0.00923127
0.00918185
0.00913237
0.00908136
0.00902703
0.0089672
0.00889921
0.00881999
0.00872593
0.00861298
0.00847667
0.00831218
0.00811449
0.00787856
0.00759954
0.00727299
0.00689514
0.0064631
0.00597497
0.00542991
0.00482782
0.00416889
0.00345252
0.00267563
0.00183085
0.000914789
0.000109882
)
;

boundaryField
{
    leftWall
    {
        type            nutkWallFunction;
        Cmu             0.09;
        kappa           0.41;
        E               9.8;
        value           nonuniform 0();
    }
    rightWall
    {
        type            nutkWallFunction;
        Cmu             0.09;
        kappa           0.41;
        E               9.8;
        value           nonuniform List<scalar> 
43
(
0
5.63392e-08
1.11722e-06
2.24298e-06
3.09235e-06
3.7443e-06
4.25507e-06
4.66185e-06
4.99007e-06
5.25761e-06
5.47955e-06
5.66426e-06
5.81813e-06
5.94653e-06
6.05377e-06
6.14337e-06
6.21822e-06
6.28073e-06
6.33292e-06
6.37647e-06
6.41279e-06
6.44308e-06
6.46831e-06
6.48928e-06
6.50668e-06
6.52102e-06
6.53273e-06
6.54215e-06
6.54954e-06
6.55509e-06
6.55895e-06
6.56124e-06
6.56204e-06
6.56141e-06
6.5594e-06
6.55604e-06
6.55139e-06
6.54547e-06
6.53833e-06
6.52999e-06
6.52052e-06
6.50995e-06
6.49832e-06
)
;
    }
    lowerWall
    {
        type            nutkWallFunction;
        Cmu             0.09;
        kappa           0.41;
        E               9.8;
        value           nonuniform List<scalar> 
66
(
1.19164e-05
1.05124e-05
1.05124e-05
2.05738e-05
2.42095e-05
2.65382e-05
2.85577e-05
3.04968e-05
3.23552e-05
3.40222e-05
3.53634e-05
3.63677e-05
3.32703e-05
3.88291e-05
3.87426e-05
3.66938e-05
0
1.40089e-06
2.39057e-06
3.69679e-06
5.1125e-06
6.64111e-06
8.61141e-06
1.22541e-05
1.99311e-05
3.35201e-05
0
0
5.8111e-09
0
3.22318e-07
7.20199e-07
9.1282e-07
9.7355e-07
9.54678e-07
8.93231e-07
8.12337e-07
7.2561e-07
6.39744e-07
5.57847e-07
4.80452e-07
4.09167e-07
3.4567e-07
2.89043e-07
2.37216e-07
1.89571e-07
1.44732e-07
1.02377e-07
6.19243e-08
2.24632e-08
0
5.50499e-08
3.05e-08
7.88171e-08
2.44285e-08
4.8116e-08
4.12099e-08
3.00547e-08
1.99063e-08
0
0
0
0
0
0
0
)
;
    }
    atmosphere
    {
        type            calculated;
        value           nonuniform 0();
    }
    defaultFaces
    {
        type            empty;
    }
    procBoundary1to0
    {
        type            processor;
        value           nonuniform List<scalar> 
44
(
0.000103809
0.000511453
0.000926443
0.00142209
0.00192965
0.00236378
0.00268173
0.00289183
0.00304154
0.00317673
0.00330767
0.0034127
0.00347539
0.00351046
0.00352638
0.00352775
0.00351993
0.00350495
0.00347093
0.00340904
0.00279756
0.00279756
0.00272337
0.00266018
0.0026726
0.00282317
0.0031551
0.00368394
0.00439206
0.00522966
0.00612732
0.00701518
0.0078387
0.00856496
0.0091807
0.00968656
0.0100911
0.0104063
0.0106449
0.0108189
0.0109391
0.0110151
0.0110552
0.0110671
)
;
    }
    procBoundary1to3
    {
        type            processor;
        value           nonuniform List<scalar> 
45
(
0.0109016
0.0107503
0.010607
0.0104699
0.0103408
0.0102135
0.0100906
0.00997851
0.00987625
0.00978289
0.00969751
0.00961924
0.00954732
0.009481
0.00941963
0.00936254
0.00930905
0.00925844
0.00920985
0.00916229
0.00911452
0.00906504
0.00901204
0.00895329
0.00888615
0.00880752
0.00871382
0.008601
0.00846461
0.00829987
0.00810181
0.00786543
0.00758593
0.00725893
0.00688074
0.00644852
0.00596047
0.00541576
0.00481439
0.00415658
0.00344179
0.00266697
0.00182483
0.000911931
0.000109801
)
;
    }
}


// ************************************************************************* //
