/*--------------------------------*- C++ -*----------------------------------*\
| =========                 |                                                 |
| \\      /  F ield         | OpenFOAM: The Open Source CFD Toolbox           |
|  \\    /   O peration     | Version:  5.0                                   |
|   \\  /    A nd           | Web:      www.OpenFOAM.org                      |
|    \\/     M anipulation  |                                                 |
\*---------------------------------------------------------------------------*/
FoamFile
{
    version     2.0;
    format      ascii;
    class       volScalarField;
    location    "0.2";
    object      p;
}
// * * * * * * * * * * * * * * * * * * * * * * * * * * * * * * * * * * * * * //

dimensions      [1 -1 -2 0 0 0 0];

internalField   nonuniform List<scalar> 
1915
(
2713.18
2780.66
2701.43
2782.49
2681.67
2834.39
2604.54
2836.27
2456.17
2751.51
2225.47
2564.92
1900.4
2268.86
1478.06
1853.13
977.374
1315.59
468.152
695.636
-2.76688
-2.765
-2.74688
-2.71026
-2.6562
-2.58884
-2.51134
-2.42766
-2.34106
-2.254
-2.16826
-2.08507
-2.00519
-1.92908
-1.85702
-1.78912
-1.72541
-1.66583
-1.61024
-1.55848
-1.5104
-1.46587
-1.42486
-1.38676
-1.35172
-1.31956
-1.29008
-1.26318
-1.23894
-1.21685
-1.19658
-1.17887
-1.16342
-1.14952
-1.13764
-1.12796
-1.12013
-1.11395
-1.10959
-1.10728
-2.82114
-2.81893
-2.80109
-2.7652
-2.71255
-2.64473
-2.56639
-2.48162
-2.3938
-2.30552
-2.21863
-2.13441
-2.05365
-1.97682
-1.90414
-1.83576
-1.77168
-1.71184
-1.65606
-1.60415
-1.55595
-1.51127
-1.46988
-1.43188
-1.39683
-1.36459
-1.33507
-1.30814
-1.28355
-1.26146
-1.24176
-1.22392
-1.20813
-1.19461
-1.18288
-1.17303
-1.16526
-1.15944
-1.1555
-1.15331
-2.88685
-2.88445
-2.86668
-2.82934
-2.77466
-2.70497
-2.62454
-2.53762
-2.44771
-2.35747
-2.26883
-2.18311
-2.10112
-2.02329
-1.94981
-1.8808
-1.81626
-1.75609
-1.70012
-1.6481
-1.59982
-1.5551
-1.51376
-1.47571
-1.44068
-1.40848
-1.379
-1.3521
-1.32763
-1.3056
-1.28584
-1.26809
-1.25248
-1.23896
-1.22733
-1.21769
-1.21012
-1.20447
-1.20064
-1.19822
-2.96359
-2.96211
-2.94383
-2.90333
-2.84431
-2.77015
-2.68546
-2.59469
-2.50143
-2.40836
-2.31738
-2.22977
-2.14632
-2.0674
-1.99312
-1.92351
-1.85855
-1.79815
-1.74207
-1.69004
-1.6418
-1.59715
-1.55592
-1.51797
-1.48306
-1.45101
-1.42167
-1.39489
-1.37057
-1.34863
-1.32894
-1.31136
-1.29589
-1.28247
-1.27103
-1.26159
-1.25414
-1.2486
-1.24475
-1.24214
-3.05431
-3.05433
-3.03465
-2.98851
-2.92237
-2.84085
-2.74939
-2.65279
-2.55474
-2.45784
-2.36385
-2.27396
-2.18887
-2.10881
-2.03375
-1.96363
-1.89839
-1.83788
-1.78182
-1.72989
-1.6818
-1.63734
-1.59635
-1.55864
-1.52399
-1.49219
-1.46307
-1.4365
-1.41238
-1.39061
-1.37109
-1.35371
-1.33842
-1.32517
-1.31391
-1.30463
-1.29729
-1.29178
-1.28783
-1.28507
-3.16392
-3.16456
-3.1418
-3.08659
-3.0098
-2.91756
-2.81651
-2.71193
-2.60756
-2.50579
-2.40814
-2.31559
-2.22865
-2.14738
-2.07158
-2.00107
-1.93568
-1.8752
-1.8193
-1.7676
-1.7198
-1.67568
-1.63506
-1.59773
-1.56345
-1.53199
-1.50319
-1.47691
-1.45306
-1.43154
-1.41226
-1.39512
-1.38005
-1.367
-1.35593
-1.34679
-1.33954
-1.33403
-1.32998
-1.3271
-3.30307
-3.29842
-3.26995
-3.20025
-3.1078
-3.00057
-2.88664
-2.77172
-2.65944
-2.55182
-2.44994
-2.35441
-2.26549
-2.18297
-2.10649
-2.0357
-1.97031
-1.91002
-1.85443
-1.80314
-1.75579
-1.71217
-1.67206
-1.63523
-1.60143
-1.57041
-1.54201
-1.51611
-1.49261
-1.47142
-1.45244
-1.43558
-1.42076
-1.40794
-1.39705
-1.38806
-1.38088
-1.37537
-1.37123
-1.36826
-3.49569
-3.46607
-3.42772
-3.33376
-3.218
-3.09002
-2.9592
-2.83133
-2.70953
-2.59514
-2.48859
-2.38994
-2.29901
-2.2153
-2.13825
-2.06734
-2.00214
-1.94225
-1.88718
-1.83647
-1.78976
-1.7468
-1.70734
-1.67114
-1.63793
-1.60745
-1.57955
-1.55411
-1.53104
-1.51024
-1.49162
-1.47509
-1.46055
-1.44797
-1.43728
-1.42843
-1.42134
-1.41583
-1.41163
-1.40861
-3.82509
-3.69295
-3.63128
-3.49376
-3.34238
-3.18575
-3.03316
-2.88948
-2.75659
-2.63467
-2.52318
-2.42144
-2.32865
-2.24399
-2.16663
-2.09584
-2.03108
-1.97182
-1.91749
-1.86759
-1.82171
-1.77956
-1.74091
-1.70546
-1.67295
-1.64312
-1.61582
-1.59093
-1.56836
-1.54802
-1.52982
-1.51364
-1.49942
-1.4871
-1.47662
-1.46793
-1.46093
-1.45545
-1.45122
-1.44818
-4.46119
-4.0442
-3.90067
-3.68787
-3.48253
-3.28676
-3.10672
-2.94436
-2.79906
-2.66915
-2.55274
-2.44812
-2.35385
-2.26864
-2.19134
-2.12104
-2.05704
-1.99869
-1.94537
-1.89649
-1.85162
-1.81047
-1.77276
-1.7382
-1.70651
-1.67745
-1.65084
-1.62659
-1.6046
-1.58478
-1.56703
-1.55126
-1.53738
-1.52534
-1.5151
-1.50658
-1.4997
-1.49426
-1.49004
-1.487
100.827
48.1957
-1.15399
-13.1161
-1.7021
8.91249
0.762771
11.3946
1.84334
10.3346
3.30952
3.95148
3.06156
0.789019
2.61049
1.49288
2.22148
1.51721
1.91528
1.5322
1.4444
1.23473
0.985277
0.746049
0.524451
0.315853
0.118246
-0.0696235
-0.248812
-0.420218
-0.584484
-0.741766
-0.891799
-1.03434
-1.16956
-1.298
-1.42032
-1.53709
-1.64877
-1.75569
-1.85819
-1.95674
-2.05193
-31.3493
-12.2462
-9.09599
-9.78127
-10.5429
-8.0607
-7.06272
-7.52224
-2.51115
-5.15514
-6.67939
-7.3525
-0.184484
-4.71119
-7.30634
-8.05614
-0.583525
-7.16104
-8.33744
-9.16694
-6.91392
-7.85424
-8.108
-10.0343
-13.4273
-11.5888
-6.01641
-9.48286
-5.77194
-13.1433
-12.5505
-9.91352
-1.61655
-6.05499
-9.20002
-10.6343
0.155634
-1.82797
-3.51339
-4.4344
0.789926
-0.240957
-1.15834
-1.80102
0.87159
0.274666
-0.376414
-0.94355
0.743492
0.349762
-0.131271
-0.605559
0.559939
0.275731
-0.0790263
-0.448901
0.371677
0.153873
-0.116137
-0.409204
0.1874
0.0133723
-0.200995
-0.439134
0.00850374
-0.135155
-0.310756
-0.507975
-0.164445
-0.285977
-0.43307
-0.59877
-0.331284
-0.43561
-0.560619
-0.701322
-0.491992
-0.58201
-0.68912
-0.809478
-0.646645
-0.724219
-0.816282
-0.919641
-0.7952
-0.861744
-0.940807
-1.02965
-0.937382
-0.994172
-1.06189
-1.13822
-1.07296
-1.12125
-1.17914
-1.2447
-1.20205
-1.24304
-1.2925
-1.34884
-1.32513
-1.35988
-1.40213
-1.45055
-1.44281
-1.47219
-1.50824
-1.54984
-1.55558
-1.58031
-1.61101
-1.64673
-1.66382
-1.68453
-1.71063
-1.74129
-1.76784
-1.78513
-1.80732
-1.83368
-1.86796
-1.88243
-1.90134
-1.92409
-1.96459
-1.97678
-1.993
-2.01272
-2.05828
-2.06861
-2.08261
-2.09976
-6.03195
-4.69863
-4.26383
-3.92345
-3.63859
-3.39105
-3.17745
-2.99386
-2.83531
-2.69744
-2.57649
-2.46949
-2.3743
-2.28908
-2.21236
-2.14301
-2.08017
-2.02308
-1.97103
-1.92342
-1.87979
-1.83982
-1.80322
-1.76969
-1.73895
-1.71077
-1.68497
-1.66145
-1.64011
-1.62087
-1.60363
-1.5883
-1.57479
-1.56307
-1.55309
-1.54477
-1.53802
-1.53265
-1.52845
-1.52543
-6.30228
-5.40334
-4.70479
-4.19446
-3.8044
-3.49291
-3.24066
-3.03439
-2.86274
-2.71777
-2.5931
-2.4847
-2.38944
-2.30497
-2.22948
-2.16163
-2.10042
-2.04498
-1.99454
-1.94847
-1.9063
-1.86772
-1.83241
-1.80008
-1.77043
-1.74325
-1.71836
-1.69565
-1.67505
-1.65645
-1.63977
-1.62492
-1.61183
-1.60047
-1.59077
-1.58267
-1.57608
-1.5708
-1.56665
-1.56367
-6.90216
-6.11269
-5.20138
-4.48857
-3.96843
-3.58247
-3.28893
-3.06126
-2.87825
-2.72761
-2.60104
-2.4927
-2.39858
-2.31582
-2.24234
-2.17664
-2.11758
-2.06421
-2.01572
-1.97148
-1.93103
-1.89404
-1.86021
-1.82923
-1.80083
-1.77477
-1.75089
-1.72908
-1.70928
-1.69138
-1.67531
-1.66099
-1.64836
-1.63737
-1.62799
-1.62015
-1.61373
-1.60857
-1.60449
-1.60157
-7.95203
-6.99919
-5.76723
-4.78689
-4.11217
-3.64625
-3.31289
-3.07004
-2.8779
-2.72491
-2.59896
-2.49265
-2.40119
-2.32132
-2.25077
-2.18793
-2.13158
-2.08074
-2.03458
-1.99247
-1.954
-1.91883
-1.88667
-1.85721
-1.83018
-1.80535
-1.78257
-1.76175
-1.74281
-1.72568
-1.71027
-1.69652
-1.68438
-1.67382
-1.66479
-1.65722
-1.65101
-1.64599
-1.64199
-1.63912
-9.2114
-7.98357
-6.32835
-5.03335
-4.20302
-3.66675
-3.30625
-3.05057
-2.85821
-2.70781
-2.58582
-2.48395
-2.39694
-2.3213
-2.25469
-2.19548
-2.14246
-2.09461
-2.05116
-2.01151
-1.97528
-1.94215
-1.91184
-1.88405
-1.85852
-1.83503
-1.81345
-1.79369
-1.77569
-1.75936
-1.74467
-1.73153
-1.71993
-1.70983
-1.70118
-1.69392
-1.68794
-1.68307
-1.67917
-1.67637
-10.1854
-8.7778
-6.70765
-5.13568
-4.20032
-3.62389
-3.25445
-3.00189
-2.81736
-2.67528
-2.56117
-2.46645
-2.3858
-2.31579
-2.25418
-2.19941
-2.15031
-2.10594
-2.06557
-2.02869
-1.99496
-1.96408
-1.9358
-1.90983
-1.88592
-1.86387
-1.84357
-1.82494
-1.80793
-1.79248
-1.77855
-1.76608
-1.75506
-1.74544
-1.73721
-1.73027
-1.72454
-1.71984
-1.71605
-1.71332
-10.4247
-9.07795
-6.73626
-5.02103
-4.05956
-3.50164
-3.15377
-2.92162
-2.75487
-2.62742
-2.5253
-2.44048
-2.36811
-2.30511
-2.24951
-2.19994
-2.15535
-2.1149
-2.07798
-2.04417
-2.01317
-1.98475
-1.95865
-1.93463
-1.91244
-1.89193
-1.87298
-1.85555
-1.8396
-1.82508
-1.81195
-1.8002
-1.78978
-1.7807
-1.7729
-1.76632
-1.76085
-1.75634
-1.75267
-1.75001
-10.3255
-8.68517
-6.3076
-4.64282
-3.77414
-3.29915
-3.00648
-2.81209
-2.67278
-2.56581
-2.4794
-2.40696
-2.34458
-2.28983
-2.24115
-2.19746
-2.15788
-2.12176
-2.08861
-2.05812
-2.03008
-2.00428
-1.98051
-1.95854
-1.93818
-1.91927
-1.90176
-1.88559
-1.87075
-1.8572
-1.84493
-1.83392
-1.82416
-1.81563
-1.8083
-1.80209
-1.79691
-1.79259
-1.78905
-1.78647
-9.47511
-7.17557
-5.24566
-3.99577
-3.3682
-3.03406
-2.82388
-2.68058
-2.57578
-2.49354
-2.42558
-2.36739
-2.31632
-2.27078
-2.22974
-2.19245
-2.15831
-2.12685
-2.09773
-2.07078
-2.04586
-2.02283
-2.0015
-1.98168
-1.96322
-1.94599
-1.92996
-1.91511
-1.90143
-1.88892
-1.87755
-1.86732
-1.85824
-1.85029
-1.84345
-1.83763
-1.83274
-1.82863
-1.82522
-1.82272
-4.52917
-4.22175
-3.74191
-3.22933
-2.9208
-2.74477
-2.62532
-2.53791
-2.47041
-2.41476
-2.36661
-2.32368
-2.2847
-2.24897
-2.21604
-2.18553
-2.15711
-2.13053
-2.10565
-2.08239
-2.06073
-2.04057
-2.02177
-2.00418
-1.98767
-1.97218
-1.95769
-1.94421
-1.93174
-1.92029
-1.90985
-1.90045
-1.89207
-1.88473
-1.87839
-1.87297
-1.86839
-1.8645
-1.86123
-1.85881
-2.25137
-2.51763
-2.65879
-2.60834
-2.52859
-2.47413
-2.43169
-2.39554
-2.36365
-2.33401
-2.30556
-2.27799
-2.25129
-2.22558
-2.20094
-2.17737
-2.15481
-2.13324
-2.11269
-2.09324
-2.07492
-2.0577
-2.04148
-2.02616
-2.01166
-1.99795
-1.98505
-1.97297
-1.96174
-1.95139
-1.94192
-1.93336
-1.92572
-1.91899
-1.91317
-1.90817
-1.9039
-1.90024
-1.89711
-1.89477
-1.45088
-1.83951
-2.06882
-2.16879
-2.21258
-2.24038
-2.25616
-2.26225
-2.26147
-2.25543
-2.24538
-2.23246
-2.21768
-2.2018
-2.18536
-2.16867
-2.15195
-2.1354
-2.11922
-2.10361
-2.08868
-2.07443
-2.06082
-2.04779
-2.03532
-2.02342
-2.01213
-2.00149
-1.99153
-1.9823
-1.97382
-1.96612
-1.95922
-1.95314
-1.94784
-1.94326
-1.93932
-1.93588
-1.93291
-1.93065
-1.0472
-1.41424
-1.67586
-1.84983
-1.96585
-2.04787
-2.10517
-2.14368
-2.16827
-2.18239
-2.18861
-2.18904
-2.18534
-2.17876
-2.17015
-2.16011
-2.14909
-2.13748
-2.12563
-2.11384
-2.10226
-2.09097
-2.07996
-2.06923
-2.0588
-2.04872
-2.03905
-2.02986
-2.02119
-2.0131
-2.00562
-1.9988
-1.99266
-1.98722
-1.98245
-1.9783
-1.97469
-1.97149
-1.96867
-1.96649
-0.818255
-1.15429
-1.42375
-1.62903
-1.78208
-1.89625
-1.98101
-2.04279
-2.08685
-2.11725
-2.13721
-2.14929
-2.15554
-2.15745
-2.15612
-2.15235
-2.14676
-2.13992
-2.13229
-2.12423
-2.11594
-2.10755
-2.0991
-2.09064
-2.08224
-2.07398
-2.06594
-2.0582
-2.05083
-2.04388
-2.03741
-2.03146
-2.02609
-2.0213
-2.01706
-2.01335
-2.01006
-2.00709
-2.00443
-2.00234
-0.718118
-1.01725
-1.27389
-1.48403
-1.65108
-1.78193
-1.88319
-1.96046
-2.01855
-2.06146
-2.09251
-2.1144
-2.12927
-2.13873
-2.14399
-2.14599
-2.1455
-2.14318
-2.13958
-2.1351
-2.12998
-2.12439
-2.11843
-2.1122
-2.1058
-2.09934
-2.09291
-2.08662
-2.08053
-2.07472
-2.06925
-2.06419
-2.05958
-2.05543
-2.05173
-2.04844
-2.04548
-2.04276
-2.04025
-2.03824
-0.698364
-0.959515
-1.19428
-1.39612
-1.56394
-1.70049
-1.80988
-1.89631
-1.96375
-2.01576
-2.05539
-2.08524
-2.10734
-2.12331
-2.13439
-2.14159
-2.14577
-2.14766
-2.14784
-2.14673
-2.14463
-2.14172
-2.13817
-2.13409
-2.12964
-2.12493
-2.12009
-2.11522
-2.11039
-2.10571
-2.10124
-2.09705
-2.09319
-2.08968
-2.08651
-2.08364
-2.08101
-2.07852
-2.07617
-2.07425
-0.726667
-0.952984
-1.16329
-1.35054
-1.51161
-1.64686
-1.75845
-1.84924
-1.92223
-1.98038
-2.02633
-2.06236
-2.09033
-2.11175
-2.12784
-2.13963
-2.14801
-2.15373
-2.15739
-2.15942
-2.16014
-2.15976
-2.15849
-2.15649
-2.15391
-2.1509
-2.1476
-2.14411
-2.14052
-2.13694
-2.13344
-2.13011
-2.12699
-2.12411
-2.12146
-2.11901
-2.11671
-2.11445
-2.11226
-2.11043
-0.784351
-0.979884
-1.16602
-1.3362
-1.48662
-1.61632
-1.72612
-1.81774
-1.89334
-1.9552
-2.00548
-2.04608
-2.07862
-2.10445
-2.12473
-2.14048
-2.15256
-2.16171
-2.16852
-2.17342
-2.17673
-2.17871
-2.17959
-2.17954
-2.17876
-2.17739
-2.17556
-2.1734
-2.17101
-2.16849
-2.16595
-2.16345
-2.16105
-2.15878
-2.15664
-2.1546
-2.15262
-2.15059
-2.14856
-2.14682
-0.859638
-1.02844
-1.19208
-1.34485
-1.48294
-1.60474
-1.7102
-1.8002
-1.87618
-1.9398
-1.99272
-2.03647
-2.07239
-2.10167
-2.12537
-2.14444
-2.15971
-2.17186
-2.18146
-2.18893
-2.19461
-2.19876
-2.20163
-2.20343
-2.20433
-2.2045
-2.20408
-2.20319
-2.20195
-2.20046
-2.19883
-2.19713
-2.19544
-2.19377
-2.19212
-2.19048
-2.1888
-2.18701
-2.18513
-2.18348
-0.945112
-1.09091
-1.23425
-1.37038
-1.49577
-1.60857
-1.70821
-1.79498
-1.86973
-1.9336
-1.98778
-2.03345
-2.07171
-2.10356
-2.12995
-2.15173
-2.16967
-2.18439
-2.19642
-2.20616
-2.21395
-2.22008
-2.22479
-2.22828
-2.23076
-2.23238
-2.23328
-2.23359
-2.23343
-2.23292
-2.23216
-2.23124
-2.23022
-2.22912
-2.22795
-2.22669
-2.22531
-2.22375
-2.22202
-2.22046
-1.03616
-1.16219
-1.28755
-1.40835
-1.52143
-1.62494
-1.718
-1.80053
-1.87293
-1.93588
-1.99022
-2.03681
-2.0765
-2.11014
-2.13855
-2.16248
-2.18259
-2.19945
-2.21354
-2.22526
-2.23492
-2.24282
-2.24919
-2.25424
-2.25816
-2.26112
-2.26324
-2.26468
-2.26554
-2.26596
-2.26603
-2.26585
-2.26546
-2.26491
-2.26419
-2.2633
-2.26221
-2.26087
-2.25929
-2.25782
-1.1299
-1.23896
-1.34857
-1.45553
-1.5571
-1.65148
-1.73772
-1.81544
-1.88472
-1.94592
-1.99956
-2.04623
-2.08661
-2.12138
-2.15121
-2.17674
-2.19855
-2.21715
-2.23297
-2.24636
-2.25765
-2.26711
-2.27496
-2.28141
-2.28665
-2.29082
-2.29408
-2.29655
-2.29837
-2.29965
-2.3005
-2.30101
-2.30123
-2.30119
-2.30091
-2.30037
-2.29956
-2.29842
-2.297
-2.29562
-1.22457
-1.31909
-1.41499
-1.50961
-1.6006
-1.68632
-1.76577
-1.83842
-1.90412
-1.96297
-2.01526
-2.06138
-2.10183
-2.13714
-2.16785
-2.19451
-2.2176
-2.23756
-2.25477
-2.26957
-2.28225
-2.29305
-2.30221
-2.3099
-2.31631
-2.32159
-2.32587
-2.32929
-2.33198
-2.33407
-2.33565
-2.3368
-2.33759
-2.33803
-2.33815
-2.33795
-2.3374
-2.33647
-2.3352
-2.33391
-1.31918
-1.40122
-1.4852
-1.56889
-1.65029
-1.72793
-1.80082
-1.86835
-1.93021
-1.98632
-2.0368
-2.08187
-2.12188
-2.15724
-2.18839
-2.21574
-2.23972
-2.2607
-2.27901
-2.29495
-2.30878
-2.32074
-2.33101
-2.33979
-2.34723
-2.35348
-2.35868
-2.36297
-2.36646
-2.36929
-2.37154
-2.37329
-2.3746
-2.37549
-2.37599
-2.37609
-2.3758
-2.37506
-2.37394
-2.37274
-1.41315
-1.48446
-1.55805
-1.63209
-1.70485
-1.77505
-1.84173
-1.90423
-1.96216
-2.0153
-2.06363
-2.10728
-2.14646
-2.18148
-2.21267
-2.24036
-2.26489
-2.28659
-2.30572
-2.32256
-2.33732
-2.35022
-2.36144
-2.37114
-2.37948
-2.38658
-2.3926
-2.39765
-2.40187
-2.40536
-2.40822
-2.41052
-2.41231
-2.41362
-2.41446
-2.41486
-2.4148
-2.41425
-2.41326
-2.41216
-1.50613
-1.56816
-1.6327
-1.69823
-1.76328
-1.82669
-1.88756
-1.94522
-1.99921
-2.04926
-2.09524
-2.1372
-2.17525
-2.20961
-2.24052
-2.26825
-2.29305
-2.31519
-2.3349
-2.3524
-2.36789
-2.38155
-2.39354
-2.40401
-2.4131
-2.42094
-2.42766
-2.4334
-2.43826
-2.44236
-2.44577
-2.44856
-2.45078
-2.45247
-2.45363
-2.45429
-2.45445
-2.45408
-2.45323
-2.45222
-1.59788
-1.65189
-1.70856
-1.76661
-1.82478
-1.88203
-1.93751
-1.99056
-2.0407
-2.08761
-2.13113
-2.17121
-2.20793
-2.24139
-2.27178
-2.29929
-2.32412
-2.34647
-2.36654
-2.38449
-2.40051
-2.41475
-2.42734
-2.43843
-2.44814
-2.4566
-2.46394
-2.47027
-2.4757
-2.48032
-2.48422
-2.48745
-2.49007
-2.49209
-2.49354
-2.49445
-2.49481
-2.49461
-2.49389
-2.49297
-1.68826
-1.73535
-1.78518
-1.83668
-1.88872
-1.94039
-1.99089
-2.03959
-2.08601
-2.12983
-2.17083
-2.20895
-2.24418
-2.27658
-2.30626
-2.33336
-2.35801
-2.38037
-2.40059
-2.41881
-2.43517
-2.44981
-2.46285
-2.47442
-2.48463
-2.4936
-2.50145
-2.50829
-2.51421
-2.5193
-2.52363
-2.52725
-2.53021
-2.53253
-2.53424
-2.53537
-2.53592
-2.53587
-2.53529
-2.53445
-1.77725
-1.81838
-1.86228
-1.90801
-1.9546
-2.0012
-2.04711
-2.09173
-2.13461
-2.17542
-2.21394
-2.25006
-2.28373
-2.31495
-2.34378
-2.3703
-2.39461
-2.4168
-2.43699
-2.45531
-2.47185
-2.48674
-2.50008
-2.512
-2.52259
-2.53197
-2.54025
-2.54751
-2.55385
-2.55933
-2.56403
-2.56799
-2.57124
-2.57383
-2.57577
-2.5771
-2.57782
-2.57792
-2.57746
-2.57671
-1.86489
-1.9009
-1.93963
-1.98028
-2.02198
-2.064
-2.10569
-2.14651
-2.18605
-2.22399
-2.2601
-2.29423
-2.3263
-2.35628
-2.38417
-2.40999
-2.4338
-2.45567
-2.47569
-2.49393
-2.5105
-2.5255
-2.53902
-2.55116
-2.56203
-2.57173
-2.58034
-2.58795
-2.59463
-2.60045
-2.60546
-2.60971
-2.61322
-2.61603
-2.61817
-2.61968
-2.62055
-2.62079
-2.62045
-2.61978
-1.95126
-1.98285
-2.01707
-2.05322
-2.09055
-2.12841
-2.16623
-2.20355
-2.23998
-2.2752
-2.309
-2.3412
-2.37168
-2.40037
-2.42723
-2.45225
-2.47546
-2.49688
-2.51658
-2.53462
-2.55109
-2.56607
-2.57964
-2.59191
-2.60296
-2.61288
-2.62175
-2.62963
-2.6366
-2.64269
-2.64795
-2.65243
-2.65616
-2.65916
-2.66148
-2.66314
-2.66416
-2.66452
-2.66429
-2.66371
-2.03644
-2.06421
-2.09448
-2.12665
-2.16006
-2.19417
-2.22849
-2.26259
-2.29612
-2.32881
-2.36041
-2.39073
-2.41964
-2.44702
-2.4728
-2.49694
-2.51944
-2.54031
-2.55957
-2.5773
-2.59355
-2.6084
-2.62194
-2.63424
-2.64538
-2.65544
-2.66449
-2.67258
-2.67975
-2.68605
-2.69152
-2.69619
-2.70009
-2.70326
-2.70573
-2.70753
-2.70867
-2.70915
-2.70902
-2.70852
-2.12054
-2.145
-2.17182
-2.20047
-2.23041
-2.26116
-2.29231
-2.32348
-2.35436
-2.38467
-2.41417
-2.44268
-2.47001
-2.49605
-2.5207
-2.54389
-2.5656
-2.58581
-2.60456
-2.62188
-2.63783
-2.65247
-2.66588
-2.67813
-2.68929
-2.69942
-2.70857
-2.71679
-2.72411
-2.73057
-2.73619
-2.74101
-2.74505
-2.74835
-2.75095
-2.75286
-2.75411
-2.7547
-2.75467
-2.75425
)
;

boundaryField
{
    leftWall
    {
        type            calculated;
        value           nonuniform 0();
    }
    rightWall
    {
        type            calculated;
        value           nonuniform List<scalar> 
43
(
-1.10728
-1.15331
-1.19822
-1.24214
-1.28507
-1.3271
-1.36826
-1.40861
-1.44818
-1.487
-1.52543
-1.56367
-1.60157
-1.63912
-1.67637
-1.71332
-1.75001
-1.78647
-1.82272
-1.85881
-1.89477
-1.93065
-1.96649
-2.00234
-2.03824
-2.07425
-2.11043
-2.14682
-2.18348
-2.22046
-2.25782
-2.29562
-2.33391
-2.37274
-2.41216
-2.45222
-2.49297
-2.53445
-2.57671
-2.61978
-2.66371
-2.70852
-2.75425
)
;
    }
    lowerWall
    {
        type            calculated;
        value           nonuniform List<scalar> 
66
(
2736.51
2799.36
2780.66
2782.49
2834.39
2836.27
2751.51
2564.92
2268.86
1853.13
1315.59
695.636
-29.1704
-12.2222
-9.07203
-9.7573
-2.76688
-2.82114
-2.88685
-2.96359
-3.05431
-3.16392
-3.30307
-3.49569
-3.82509
-4.46119
-2.74334
-2.74146
-2.72334
-2.68672
-2.63266
-2.5653
-2.48779
-2.40412
-2.31751
-2.23045
-2.14472
-2.06152
-1.98164
-1.90554
-1.83347
-1.76557
-1.70187
-1.64229
-1.5867
-1.53494
-1.48685
-1.44233
-1.40131
-1.36321
-1.32818
-1.29602
-1.26654
-1.23964
-1.21539
-1.1933
-1.17304
-1.15533
-1.13987
-1.12598
-1.11409
-1.10442
-1.09658
-1.0904
-1.08605
-1.08373
)
;
    }
    atmosphere
    {
        type            calculated;
        value           nonuniform 0();
    }
    defaultFaces
    {
        type            empty;
    }
    procBoundary1to0
    {
        type            processor;
        value           nonuniform List<scalar> 
44
(
2611.28
2591.71
2512.35
2374.41
2187.24
1935.24
1604.65
1196.18
720.811
278.384
53.948
11.9477
7.22682
5.15036
3.83586
3.3195
2.9633
2.6002
2.26273
1.9584
1.6336
1.6336
1.35343
1.0894
0.845056
0.615199
0.397861
0.191618
-0.00470722
-0.191915
-0.370691
-0.541637
-0.704936
-0.860437
-1.00804
-1.14793
-1.28055
-1.40654
-1.52647
-1.64078
-1.74989
-1.85419
-1.95416
-2.05037
)
;
    }
    procBoundary1to3
    {
        type            processor;
        value           nonuniform List<scalar> 
45
(
-2.14431
-2.14956
-2.15837
-2.17047
-2.18545
-2.20368
-2.22528
-2.24909
-2.27467
-2.30155
-2.32933
-2.35764
-2.38616
-2.41459
-2.44267
-2.47017
-2.49689
-2.52265
-2.54731
-2.57077
-2.59295
-2.61379
-2.63329
-2.65144
-2.66828
-2.68386
-2.69823
-2.71145
-2.72359
-2.73469
-2.74482
-2.75401
-2.76229
-2.76969
-2.77624
-2.78197
-2.78689
-2.79104
-2.79445
-2.79715
-2.79917
-2.80053
-2.80121
-2.80128
-2.80094
)
;
    }
}


// ************************************************************************* //
