/*--------------------------------*- C++ -*----------------------------------*\
| =========                 |                                                 |
| \\      /  F ield         | OpenFOAM: The Open Source CFD Toolbox           |
|  \\    /   O peration     | Version:  5.0                                   |
|   \\  /    A nd           | Web:      www.OpenFOAM.org                      |
|    \\/     M anipulation  |                                                 |
\*---------------------------------------------------------------------------*/
FoamFile
{
    version     2.0;
    format      ascii;
    class       volScalarField;
    location    "0.2";
    object      p_rgh;
}
// * * * * * * * * * * * * * * * * * * * * * * * * * * * * * * * * * * * * * //

dimensions      [1 -1 -2 0 0 0 0];

internalField   nonuniform List<scalar> 
1915
(
2736.51
2799.36
2772.06
2845.77
2799.39
2949.17
2769.34
3001.07
2668.06
2963.4
2484.44
2823.89
2206.46
2574.92
1831.19
2206.27
1377.24
1715.78
910.551
1142.96
-2.74334
-2.74146
-2.72334
-2.68672
-2.63266
-2.5653
-2.48779
-2.40412
-2.31751
-2.23045
-2.14472
-2.06152
-1.98164
-1.90554
-1.83347
-1.76557
-1.70187
-1.64229
-1.5867
-1.53494
-1.48685
-1.44233
-1.40131
-1.36321
-1.32818
-1.29602
-1.26654
-1.23964
-1.21539
-1.1933
-1.17304
-1.15533
-1.13987
-1.12598
-1.11409
-1.10442
-1.09658
-1.0904
-1.08605
-1.08373
-2.75051
-2.7483
-2.73046
-2.69457
-2.64192
-2.5741
-2.49575
-2.41099
-2.32317
-2.23489
-2.148
-2.06378
-1.98302
-1.90619
-1.83351
-1.76513
-1.70105
-1.64121
-1.58543
-1.53352
-1.48532
-1.44064
-1.39925
-1.36125
-1.3262
-1.29396
-1.26444
-1.23751
-1.21292
-1.19083
-1.17113
-1.15329
-1.1375
-1.12398
-1.11225
-1.1024
-1.09463
-1.08881
-1.08487
-1.08268
-2.76913
-2.76673
-2.74896
-2.71162
-2.65695
-2.58725
-2.50682
-2.41991
-2.32999
-2.23975
-2.15111
-2.06539
-1.9834
-1.90557
-1.8321
-1.76308
-1.69854
-1.63838
-1.5824
-1.53038
-1.4821
-1.43739
-1.39605
-1.35799
-1.32296
-1.29076
-1.26128
-1.23438
-1.20991
-1.18788
-1.16812
-1.15037
-1.13477
-1.12124
-1.10961
-1.09997
-1.0924
-1.08675
-1.08293
-1.0805
-2.79879
-2.79731
-2.77903
-2.73853
-2.67951
-2.60535
-2.52066
-2.42988
-2.33662
-2.24356
-2.15257
-2.06496
-1.98152
-1.9026
-1.82832
-1.7587
-1.69375
-1.63335
-1.57727
-1.52524
-1.477
-1.43235
-1.39112
-1.35316
-1.31826
-1.28621
-1.25686
-1.23008
-1.20576
-1.18382
-1.16413
-1.14655
-1.13108
-1.11767
-1.10623
-1.09678
-1.08934
-1.08379
-1.07994
-1.07734
-2.84242
-2.84244
-2.82275
-2.77662
-2.71048
-2.62896
-2.5375
-2.44089
-2.34285
-2.24595
-2.15195
-2.06207
-1.97698
-1.89692
-1.82185
-1.75174
-1.6865
-1.62598
-1.56993
-1.518
-1.46991
-1.42545
-1.38446
-1.34675
-1.3121
-1.2803
-1.25118
-1.22461
-1.20048
-1.17872
-1.1592
-1.14181
-1.12653
-1.11328
-1.10202
-1.09274
-1.0854
-1.07989
-1.07594
-1.07318
-2.90494
-2.90558
-2.88282
-2.82762
-2.75082
-2.65859
-2.55753
-2.45295
-2.34858
-2.24682
-2.14916
-2.05661
-1.96967
-1.8884
-1.8126
-1.74209
-1.6767
-1.61622
-1.56032
-1.50862
-1.46083
-1.41671
-1.37609
-1.33875
-1.30447
-1.27301
-1.24421
-1.21793
-1.19408
-1.17256
-1.15328
-1.13614
-1.12107
-1.10802
-1.09695
-1.08781
-1.08056
-1.07505
-1.071
-1.06812
-2.99701
-2.99236
-2.96389
-2.89419
-2.80174
-2.69451
-2.58057
-2.46565
-2.35338
-2.24576
-2.14387
-2.04835
-1.95943
-1.8769
-1.80042
-1.72963
-1.66425
-1.60395
-1.54837
-1.49707
-1.44973
-1.4061
-1.366
-1.32917
-1.29536
-1.26435
-1.23595
-1.21005
-1.18654
-1.16535
-1.14638
-1.12951
-1.1147
-1.10187
-1.09098
-1.08199
-1.07482
-1.0693
-1.06517
-1.0622
-3.14254
-3.11291
-3.07456
-2.9806
-2.86484
-2.73686
-2.60605
-2.47817
-2.35638
-2.24199
-2.13544
-2.03679
-1.94585
-1.86215
-1.7851
-1.71419
-1.64899
-1.58909
-1.53402
-1.48332
-1.43661
-1.39365
-1.35419
-1.31799
-1.28477
-1.2543
-1.2264
-1.20096
-1.17789
-1.15709
-1.13847
-1.12193
-1.1074
-1.09481
-1.08412
-1.07528
-1.06818
-1.06268
-1.05848
-1.05546
-3.42485
-3.29271
-3.23105
-3.09352
-2.94215
-2.78551
-2.63293
-2.48924
-2.35635
-2.23443
-2.12294
-2.0212
-1.92841
-1.84375
-1.76639
-1.6956
-1.63084
-1.57158
-1.51725
-1.46735
-1.42147
-1.37932
-1.34067
-1.30522
-1.27271
-1.24288
-1.21558
-1.19069
-1.16812
-1.14778
-1.12958
-1.1134
-1.09918
-1.08686
-1.07638
-1.06769
-1.06069
-1.05521
-1.05098
-1.04794
-4.01386
-3.59687
-3.45335
-3.24054
-3.0352
-2.83944
-2.65939
-2.49703
-2.35173
-2.22183
-2.10542
-2.0008
-1.90652
-1.82131
-1.74401
-1.67371
-1.60971
-1.55137
-1.49804
-1.44916
-1.4043
-1.36315
-1.32543
-1.29088
-1.25918
-1.23012
-1.20352
-1.17927
-1.15728
-1.13746
-1.11971
-1.10393
-1.09005
-1.07802
-1.06777
-1.05926
-1.05237
-1.04694
-1.04271
-1.03967
559.294
542.593
292.777
526.773
20.1085
580
8.5048
601.878
4.95736
580.323
5.00072
307.602
4.19434
1.85702
3.55494
2.50612
3.15374
2.42432
2.87155
2.48337
2.44802
2.28908
2.09002
1.90347
1.73581
1.58192
1.4396
1.30755
1.1847
1.07016
0.963295
0.863943
0.772378
0.688844
0.613182
0.544857
0.48321
0.427665
0.377787
0.333243
0.293698
0.258691
0.227633
13.6402
-11.7514
-8.60116
-9.28643
48.7974
-7.51771
-6.51973
-6.97926
66.344
-4.56355
-6.08779
-6.76065
170.025
-2.08862
-6.66632
-7.41498
462.208
12.6701
-7.669
-8.47597
456.027
122.451
-6.87025
-9.28942
157.5
173.273
36.1125
-8.15521
8.88188
83.2241
76.5531
19.0805
4.12015
3.25512
19.2755
20.4691
2.82885
1.76615
-0.288204
0.506555
2.35564
1.61806
0.542491
-0.379729
2.09589
1.57637
0.87683
0.229851
1.89427
1.51999
1.02355
0.529996
1.72881
1.44907
1.09015
0.715238
1.58568
1.36882
1.09781
0.803516
1.45403
1.28019
1.0656
0.827186
1.32997
1.18634
1.01069
0.813421
1.21275
1.09122
0.944118
0.778407
1.10223
0.997908
0.872898
0.732193
0.998391
0.908373
0.801263
0.680904
0.901134
0.82356
0.731497
0.628138
0.810509
0.743965
0.664901
0.57606
0.726794
0.670004
0.602284
0.525956
0.650231
0.601939
0.54405
0.478487
0.5807
0.539708
0.490249
0.43391
0.517724
0.482978
0.440726
0.392303
0.460716
0.43134
0.395283
0.353683
0.409178
0.384451
0.353745
0.318032
0.36274
0.342029
0.315932
0.285271
0.321097
0.303801
0.281621
0.255254
0.283933
0.269462
0.25055
0.2278
0.250841
0.238655
0.222431
0.202714
0.221275
0.210948
0.196953
0.179794
-5.53711
-4.2038
-3.76899
-3.42862
-3.14376
-2.89622
-2.68262
-2.49902
-2.34048
-2.20261
-2.08165
-1.97466
-1.87946
-1.79425
-1.71752
-1.64817
-1.58533
-1.52824
-1.4762
-1.42859
-1.38495
-1.34498
-1.30838
-1.27486
-1.24412
-1.21593
-1.19013
-1.16661
-1.14527
-1.12604
-1.10879
-1.09346
-1.07996
-1.06824
-1.05825
-1.04993
-1.04318
-1.03782
-1.03362
-1.0306
-5.7593
-4.86035
-4.1618
-3.65147
-3.26141
-2.94992
-2.69767
-2.49141
-2.31975
-2.17478
-2.05011
-1.94171
-1.84645
-1.76198
-1.68649
-1.61864
-1.55743
-1.50199
-1.45155
-1.40548
-1.36331
-1.32473
-1.28942
-1.25709
-1.22745
-1.20026
-1.17537
-1.15267
-1.13206
-1.11346
-1.09678
-1.08193
-1.06885
-1.05748
-1.04778
-1.03968
-1.03309
-1.02781
-1.02366
-1.02069
-6.31035
-5.52109
-4.60976
-3.89697
-3.37684
-2.99088
-2.69734
-2.46967
-2.28666
-2.13602
-2.00945
-1.90111
-1.80699
-1.72423
-1.65075
-1.58505
-1.52599
-1.47262
-1.42413
-1.37989
-1.33944
-1.30245
-1.26862
-1.23765
-1.20924
-1.18318
-1.1593
-1.13749
-1.11769
-1.09979
-1.08372
-1.0694
-1.05677
-1.04578
-1.0364
-1.02856
-1.02214
-1.01698
-1.0129
-1.00998
-7.30916
-6.35813
-5.12618
-4.14622
-3.47153
-3.00561
-2.67225
-2.42939
-2.23726
-2.08427
-1.95832
-1.85201
-1.76055
-1.68068
-1.61013
-1.54729
-1.49094
-1.4401
-1.39394
-1.35183
-1.31336
-1.27819
-1.24603
-1.21657
-1.18953
-1.16471
-1.14193
-1.12111
-1.10217
-1.08503
-1.06962
-1.05587
-1.04374
-1.03318
-1.02414
-1.01658
-1.01037
-1.00535
-1.00135
-0.998483
-8.46922
-7.27173
-5.63308
-4.34227
-3.51281
-2.9766
-2.61611
-2.36042
-2.16806
-2.01766
-1.89567
-1.7938
-1.70679
-1.63115
-1.56454
-1.50533
-1.45231
-1.40446
-1.36101
-1.32136
-1.28513
-1.252
-1.22169
-1.1939
-1.16837
-1.14488
-1.1233
-1.10354
-1.08554
-1.06922
-1.05452
-1.04139
-1.02979
-1.01968
-1.01103
-1.00377
-0.99779
-0.99292
-0.98902
-0.986221
-9.38487
-7.86709
-5.87777
-4.38437
-3.4596
-2.88376
-2.51434
-2.26177
-2.07725
-1.93516
-1.82105
-1.72633
-1.64568
-1.57568
-1.51406
-1.45929
-1.41019
-1.36582
-1.32545
-1.28857
-1.25484
-1.22397
-1.19568
-1.16971
-1.1458
-1.12376
-1.10346
-1.08483
-1.06782
-1.05237
-1.03843
-1.02597
-1.01494
-1.00533
-0.99709
-0.990159
-0.984427
-0.979728
-0.975938
-0.973208
-9.54545
-7.89969
-5.79375
-4.21655
-3.26827
-2.71107
-2.36322
-2.13107
-1.96432
-1.83687
-1.73475
-1.64993
-1.57756
-1.51457
-1.45897
-1.4094
-1.3648
-1.32436
-1.28743
-1.25362
-1.22263
-1.1942
-1.16811
-1.14408
-1.1219
-1.10138
-1.08244
-1.06501
-1.04905
-1.03453
-1.02141
-1.00965
-0.999238
-0.990152
-0.982353
-0.975773
-0.970308
-0.965794
-0.962123
-0.959467
-6.91238
-7.54746
-5.40503
-3.79229
-2.93166
-2.45762
-2.16503
-1.97064
-1.83134
-1.72437
-1.63795
-1.56552
-1.50314
-1.44839
-1.39971
-1.35601
-1.31644
-1.28032
-1.24717
-1.21668
-1.18863
-1.16283
-1.13906
-1.1171
-1.09673
-1.07783
-1.06031
-1.04414
-1.0293
-1.01576
-1.00349
-0.992479
-0.982718
-0.974188
-0.966853
-0.960646
-0.955463
-0.951145
-0.947602
-0.945023
1.50151
-5.85499
-4.26983
-3.09007
-2.4738
-2.14108
-1.93105
-1.78776
-1.68296
-1.60072
-1.53276
-1.47457
-1.4235
-1.37796
-1.33692
-1.29963
-1.2655
-1.23403
-1.20492
-1.17797
-1.15304
-1.13001
-1.10868
-1.08887
-1.0704
-1.05317
-1.03715
-1.0223
-1.00862
-0.996098
-0.984729
-0.974505
-0.965425
-0.957478
-0.950628
-0.944811
-0.939923
-0.935814
-0.932406
-0.929905
-0.392825
-2.35679
-2.74982
-2.27672
-1.97507
-1.79999
-1.68065
-1.59324
-1.52575
-1.4701
-1.42195
-1.37901
-1.34004
-1.30431
-1.27137
-1.24087
-1.21245
-1.18587
-1.16098
-1.13773
-1.11606
-1.0959
-1.0771
-1.05951
-1.043
-1.02752
-1.01303
-0.999545
-0.987074
-0.97562
-0.965186
-0.95578
-0.947409
-0.940066
-0.933719
-0.928305
-0.923725
-0.919833
-0.916566
-0.914145
-0.944643
-1.39531
-1.64991
-1.60928
-1.5313
-1.4771
-1.43469
-1.39854
-1.36665
-1.33701
-1.30857
-1.281
-1.2543
-1.22859
-1.20395
-1.18038
-1.15782
-1.13624
-1.11569
-1.09624
-1.07792
-1.0607
-1.04449
-1.02917
-1.01466
-1.00096
-0.988052
-0.975974
-0.964747
-0.954391
-0.944922
-0.93636
-0.928719
-0.921999
-0.91617
-0.91117
-0.906906
-0.903239
-0.900117
-0.897778
-0.33152
-0.765003
-1.01626
-1.11851
-1.1627
-1.19056
-1.20635
-1.21244
-1.21166
-1.20562
-1.19557
-1.18265
-1.16787
-1.15199
-1.13555
-1.11886
-1.10214
-1.08559
-1.06941
-1.0538
-1.03886
-1.02461
-1.011
-0.997979
-0.985511
-0.973612
-0.962318
-0.951674
-0.941719
-0.932485
-0.924004
-0.916305
-0.909411
-0.903326
-0.898025
-0.893449
-0.889507
-0.886071
-0.883098
-0.880841
0.0701443
-0.306789
-0.572044
-0.746606
-0.862721
-0.94475
-1.00205
-1.04056
-1.06516
-1.07927
-1.08549
-1.08592
-1.08223
-1.07564
-1.06703
-1.05699
-1.04597
-1.03436
-1.02251
-1.01072
-0.999144
-0.987848
-0.976837
-0.966108
-0.955681
-0.945603
-0.935936
-0.926742
-0.918075
-0.90998
-0.902501
-0.895678
-0.889541
-0.884101
-0.879333
-0.875185
-0.87157
-0.868368
-0.865547
-0.863373
0.34145
0.00347406
-0.26667
-0.472091
-0.625161
-0.739334
-0.824089
-0.885869
-0.929927
-0.960332
-0.980287
-0.992374
-0.998618
-1.00053
-0.999204
-0.995428
-0.989843
-0.983003
-0.975375
-0.967309
-0.959022
-0.950626
-0.942175
-0.933719
-0.925321
-0.91706
-0.909021
-0.901281
-0.893907
-0.886957
-0.880485
-0.874543
-0.869169
-0.864376
-0.860145
-0.856426
-0.85314
-0.850174
-0.847508
-0.845419
0.493687
0.194145
-0.062635
-0.272801
-0.439855
-0.570707
-0.671972
-0.749239
-0.807327
-0.850242
-0.881292
-0.903184
-0.918053
-0.927514
-0.932774
-0.93477
-0.934278
-0.931961
-0.928361
-0.923874
-0.918759
-0.913169
-0.907212
-0.900982
-0.894581
-0.888116
-0.881691
-0.875395
-0.869307
-0.863497
-0.858031
-0.852969
-0.848356
-0.844208
-0.840511
-0.83722
-0.834263
-0.831535
-0.829025
-0.827022
0.567776
0.306544
0.0717567
-0.130096
-0.297912
-0.434461
-0.54385
-0.630285
-0.697728
-0.749731
-0.789367
-0.819211
-0.841319
-0.857288
-0.868367
-0.875567
-0.879748
-0.881637
-0.881816
-0.880709
-0.878604
-0.875698
-0.872141
-0.868068
-0.863614
-0.858907
-0.854065
-0.84919
-0.844368
-0.839683
-0.835211
-0.831021
-0.827162
-0.823654
-0.820486
-0.817619
-0.814989
-0.812498
-0.810145
-0.808229
0.594694
0.368361
0.158053
-0.0291966
-0.190267
-0.325517
-0.437112
-0.527896
-0.600895
-0.659041
-0.70499
-0.741019
-0.768993
-0.790412
-0.806497
-0.818286
-0.826669
-0.832395
-0.836055
-0.838085
-0.838798
-0.838424
-0.83715
-0.835146
-0.832569
-0.829565
-0.826261
-0.822768
-0.819183
-0.815599
-0.812103
-0.808769
-0.80565
-0.80277
-0.800122
-0.797673
-0.795367
-0.793112
-0.790917
-0.789088
0.59282
0.397284
0.211149
0.0409719
-0.109451
-0.239157
-0.348956
-0.440573
-0.516173
-0.578032
-0.628308
-0.668909
-0.70145
-0.727283
-0.747565
-0.763309
-0.775392
-0.784547
-0.791353
-0.796248
-0.79956
-0.801546
-0.802421
-0.802378
-0.801592
-0.800219
-0.798392
-0.796231
-0.793842
-0.791327
-0.78878
-0.78628
-0.783883
-0.781617
-0.779477
-0.777438
-0.775448
-0.773427
-0.77139
-0.76965
0.573876
0.405071
0.241437
0.0886671
-0.0494224
-0.171225
-0.276683
-0.366685
-0.442667
-0.506289
-0.559211
-0.602958
-0.638879
-0.668159
-0.691859
-0.710929
-0.726195
-0.738351
-0.747948
-0.755416
-0.761092
-0.765249
-0.768121
-0.769916
-0.770819
-0.77099
-0.770569
-0.769678
-0.768435
-0.766947
-0.765315
-0.763622
-0.761924
-0.760253
-0.758607
-0.756966
-0.755286
-0.753495
-0.751613
-0.749963
0.54527
0.399475
0.256131
0.119999
-0.00539227
-0.118191
-0.217827
-0.304597
-0.379349
-0.443214
-0.497397
-0.54307
-0.581325
-0.613176
-0.639565
-0.66135
-0.679287
-0.694009
-0.706034
-0.715776
-0.723571
-0.729699
-0.734405
-0.737902
-0.740379
-0.741995
-0.742894
-0.743204
-0.743047
-0.742539
-0.741783
-0.740862
-0.739837
-0.738737
-0.737567
-0.73631
-0.734931
-0.733364
-0.731639
-0.730078
0.511618
0.385593
0.260224
0.139428
0.0263441
-0.0771565
-0.170224
-0.252754
-0.325149
-0.388104
-0.442442
-0.489027
-0.528719
-0.562364
-0.590774
-0.6147
-0.634809
-0.651672
-0.665766
-0.677481
-0.687146
-0.695041
-0.701408
-0.706462
-0.710385
-0.713339
-0.715465
-0.716897
-0.717763
-0.718179
-0.718253
-0.718067
-0.717682
-0.717128
-0.716413
-0.715525
-0.714436
-0.713088
-0.711516
-0.710046
0.47581
0.366752
0.257134
0.150175
0.0486128
-0.045774
-0.13201
-0.20973
-0.279013
-0.340213
-0.393848
-0.440525
-0.480904
-0.515669
-0.545498
-0.57103
-0.592844
-0.611443
-0.627259
-0.640656
-0.651946
-0.661399
-0.66925
-0.675706
-0.680942
-0.685116
-0.68837
-0.690841
-0.692658
-0.693941
-0.694795
-0.695302
-0.695521
-0.695484
-0.695199
-0.694662
-0.69385
-0.692714
-0.691294
-0.689915
0.439603
0.345087
0.249187
0.154562
0.063574
-0.0221474
-0.101593
-0.174243
-0.239943
-0.298797
-0.351084
-0.397208
-0.437655
-0.472961
-0.503677
-0.530334
-0.553423
-0.573382
-0.590595
-0.605395
-0.61807
-0.628875
-0.63803
-0.645728
-0.652137
-0.657411
-0.66169
-0.665112
-0.667807
-0.669893
-0.671473
-0.672627
-0.673412
-0.673858
-0.673979
-0.673773
-0.673225
-0.672294
-0.671022
-0.669735
0.404005
0.321962
0.237992
0.154296
0.0728989
-0.00473928
-0.0776291
-0.145159
-0.207021
-0.263136
-0.313609
-0.358682
-0.398696
-0.434058
-0.465201
-0.492558
-0.516538
-0.537515
-0.555826
-0.571765
-0.585596
-0.597549
-0.607826
-0.616606
-0.624047
-0.630297
-0.635496
-0.63978
-0.643275
-0.646099
-0.648348
-0.650101
-0.651408
-0.652304
-0.652801
-0.652907
-0.65261
-0.651875
-0.650748
-0.649552
0.369592
0.298285
0.224698
0.150659
0.0778927
0.00769618
-0.0589837
-0.121489
-0.179411
-0.232551
-0.280885
-0.324532
-0.363718
-0.398737
-0.429921
-0.457613
-0.482149
-0.503841
-0.522975
-0.53981
-0.554575
-0.567477
-0.578698
-0.588399
-0.596731
-0.603836
-0.609851
-0.614906
-0.619124
-0.622617
-0.625477
-0.627776
-0.629563
-0.630871
-0.631718
-0.632112
-0.632051
-0.631503
-0.630519
-0.629412
0.336725
0.274693
0.210153
0.144622
0.0795757
0.0161679
-0.0447044
-0.102368
-0.156358
-0.206399
-0.252384
-0.294339
-0.332395
-0.366755
-0.397666
-0.425391
-0.450195
-0.472333
-0.492044
-0.509546
-0.525037
-0.538696
-0.550685
-0.561153
-0.57024
-0.578081
-0.584807
-0.590544
-0.595407
-0.5995
-0.60291
-0.605703
-0.607925
-0.609608
-0.610774
-0.611436
-0.611594
-0.611225
-0.610377
-0.609361
0.305647
0.251636
0.194969
0.136915
0.078746
0.0214992
-0.033983
-0.0870363
-0.137176
-0.184086
-0.227603
-0.267688
-0.3044
-0.337865
-0.368256
-0.395765
-0.420594
-0.442944
-0.463009
-0.480967
-0.496987
-0.511221
-0.523814
-0.5349
-0.544611
-0.553073
-0.56041
-0.566739
-0.572169
-0.576795
-0.580694
-0.583927
-0.586539
-0.58856
-0.590015
-0.590921
-0.591283
-0.591081
-0.590366
-0.589439
0.276495
0.229408
0.179579
0.128084
0.0760372
0.0243725
-0.0261274
-0.0748285
-0.121251
-0.165066
-0.206075
-0.244192
-0.27942
-0.311822
-0.341504
-0.368597
-0.393248
-0.415607
-0.435826
-0.454049
-0.470414
-0.485053
-0.498093
-0.509658
-0.519868
-0.528842
-0.536693
-0.54353
-0.549451
-0.554541
-0.558869
-0.56249
-0.565446
-0.567767
-0.569481
-0.570609
-0.571159
-0.571114
-0.570527
-0.569688
0.249306
0.208179
0.164284
0.118552
0.0719646
0.0253601
-0.0205471
-0.0651689
-0.108049
-0.148858
-0.187381
-0.223499
-0.257165
-0.28839
-0.317224
-0.343743
-0.368045
-0.390238
-0.410433
-0.428745
-0.445288
-0.460176
-0.47352
-0.485434
-0.496028
-0.505411
-0.513685
-0.520948
-0.527286
-0.532773
-0.537471
-0.541428
-0.544682
-0.547267
-0.549211
-0.550538
-0.551259
-0.551361
-0.550896
-0.550144
0.224043
0.18804
0.149308
0.108657
0.0669521
0.0249369
-0.0167498
-0.0575751
-0.0971154
-0.135052
-0.171161
-0.205294
-0.237368
-0.267347
-0.29523
-0.321051
-0.344863
-0.366736
-0.386751
-0.404997
-0.421568
-0.436562
-0.450081
-0.462226
-0.473097
-0.482793
-0.491403
-0.499013
-0.505697
-0.511518
-0.516528
-0.520769
-0.524279
-0.527092
-0.529237
-0.530741
-0.531618
-0.531857
-0.531509
-0.530843
0.200633
0.169046
0.134823
0.0986699
0.0613395
0.0234814
-0.0143437
-0.0516614
-0.0880849
-0.123311
-0.157107
-0.189306
-0.219788
-0.248479
-0.275339
-0.300362
-0.323566
-0.34499
-0.364689
-0.382732
-0.399198
-0.414174
-0.427751
-0.440021
-0.451073
-0.460993
-0.46986
-0.477743
-0.484705
-0.490797
-0.496063
-0.500541
-0.504266
-0.507272
-0.509591
-0.511251
-0.512267
-0.512633
-0.512398
-0.511815
0.178992
0.151223
0.12095
0.0887822
0.0553652
0.0212575
-0.0130556
-0.0471562
-0.0806934
-0.113379
-0.144978
-0.175303
-0.204208
-0.231586
-0.257367
-0.281512
-0.30401
-0.324875
-0.344144
-0.361869
-0.378119
-0.392971
-0.406506
-0.418806
-0.429951
-0.440014
-0.449061
-0.457147
-0.464322
-0.470625
-0.476094
-0.480763
-0.484665
-0.487833
-0.4903
-0.492096
-0.493237
-0.49372
-0.49359
-0.493089
0.159021
0.13456
0.107743
0.0790895
0.0491491
0.0183966
-0.0127505
-0.0439229
-0.0748005
-0.105109
-0.134615
-0.163119
-0.190455
-0.216495
-0.241141
-0.264332
-0.286038
-0.306255
-0.325002
-0.34232
-0.358267
-0.37291
-0.38632
-0.398572
-0.409732
-0.419862
-0.429014
-0.437232
-0.444553
-0.45101
-0.456632
-0.461448
-0.465491
-0.468793
-0.471387
-0.473301
-0.474554
-0.475143
-0.475115
-0.474693
)
;

boundaryField
{
    leftWall
    {
        type            fixedFluxPressure;
        gradient        nonuniform 0();
        value           nonuniform 0();
    }
    rightWall
    {
        type            fixedFluxPressure;
        gradient        uniform 0;
        value           nonuniform List<scalar> 
43
(
-1.08373
-1.08268
-1.0805
-1.07734
-1.07318
-1.06812
-1.0622
-1.05546
-1.04794
-1.03967
-1.0306
-1.02069
-1.00998
-0.998483
-0.986221
-0.973208
-0.959467
-0.945023
-0.929905
-0.914145
-0.897778
-0.880841
-0.863373
-0.845419
-0.827022
-0.808229
-0.789088
-0.76965
-0.749963
-0.730078
-0.710046
-0.689915
-0.669735
-0.649552
-0.629412
-0.609361
-0.589439
-0.569688
-0.550144
-0.530843
-0.511815
-0.493089
-0.474693
)
;
    }
    lowerWall
    {
        type            fixedFluxPressure;
        gradient        uniform 0;
        value           nonuniform List<scalar> 
66
(
2736.51
2799.36
2799.36
2845.77
2949.17
3001.07
2963.4
2823.89
2574.92
2206.27
1715.78
1142.96
13.6402
-11.7514
-8.60116
-9.28643
-2.74334
-2.75051
-2.76913
-2.79879
-2.84242
-2.90494
-2.99701
-3.14254
-3.42485
-4.01386
-2.74334
-2.74146
-2.72334
-2.68672
-2.63266
-2.5653
-2.48779
-2.40412
-2.31751
-2.23045
-2.14472
-2.06152
-1.98164
-1.90554
-1.83347
-1.76557
-1.70187
-1.64229
-1.5867
-1.53494
-1.48685
-1.44233
-1.40131
-1.36321
-1.32818
-1.29602
-1.26654
-1.23964
-1.21539
-1.1933
-1.17304
-1.15533
-1.13987
-1.12598
-1.11409
-1.10442
-1.09658
-1.0904
-1.08605
-1.08373
)
;
    }
    atmosphere
    {
        type            totalPressure;
        rho             rho;
        psi             none;
        gamma           1;
        p0              nonuniform 0();
        value           nonuniform 0();
    }
    defaultFaces
    {
        type            empty;
    }
    procBoundary1to0
    {
        type            processor;
        value           nonuniform List<scalar> 
44
(
2634.79
2662.32
2630.07
2539.21
2399.11
2194.2
1910.71
1549.33
1121.05
642.304
181.657
25.9001
12.9808
7.74133
5.36166
4.37269
3.86585
3.47964
3.16781
2.90709
2.63462
2.63462
2.40449
2.19289
2.00208
1.82645
1.66389
1.51296
1.37246
1.2416
1.11969
1.00614
0.900772
0.803739
0.715144
0.63482
0.562304
0.496984
0.438292
0.385778
0.33905
0.297699
0.261269
0.22919
)
;
    }
    procBoundary1to3
    {
        type            processor;
        value           nonuniform List<scalar> 
45
(
0.199972
0.194725
0.185908
0.17381
0.158838
0.1406
0.119003
0.0951948
0.0696134
0.042729
0.0149507
-0.013359
-0.0418744
-0.0703037
-0.098385
-0.125886
-0.152603
-0.178365
-0.203031
-0.22649
-0.248665
-0.269508
-0.289002
-0.307156
-0.323998
-0.339576
-0.353945
-0.367168
-0.379304
-0.39041
-0.400535
-0.409722
-0.418004
-0.425408
-0.43196
-0.437685
-0.442608
-0.44676
-0.45017
-0.45287
-0.454888
-0.456242
-0.456931
-0.456998
-0.456653
)
;
    }
}


// ************************************************************************* //
