/*--------------------------------*- C++ -*----------------------------------*\
| =========                 |                                                 |
| \\      /  F ield         | OpenFOAM: The Open Source CFD Toolbox           |
|  \\    /   O peration     | Version:  5.0                                   |
|   \\  /    A nd           | Web:      www.OpenFOAM.org                      |
|    \\/     M anipulation  |                                                 |
\*---------------------------------------------------------------------------*/
FoamFile
{
    version     2.0;
    format      ascii;
    class       surfaceScalarField;
    location    "0.2";
    object      phi;
}
// * * * * * * * * * * * * * * * * * * * * * * * * * * * * * * * * * * * * * //

dimensions      [0 3 -1 0 0 0 0];

internalField   nonuniform List<scalar> 
3731
(
-7.11359e-06
1.20829e-05
-7.11359e-06
1.34453e-05
3.12327e-05
6.33172e-06
2.36776e-05
5.20659e-05
3.00093e-05
2.72326e-05
7.26057e-05
5.72418e-05
2.84248e-05
9.31241e-05
8.56667e-05
2.9428e-05
0.000114013
0.000115095
3.0574e-05
0.000135264
0.000145669
3.10487e-05
0.000156047
0.000176717
2.91821e-05
0.000174343
0.000205899
2.49559e-05
0.000187066
0.000230855
-5.2556e-06
5.2556e-06
-9.53969e-06
4.28405e-06
-1.23173e-05
2.77757e-06
-1.33682e-05
1.05097e-06
-1.30515e-05
-3.16709e-07
-1.18814e-05
-1.17015e-06
-1.02396e-05
-1.64172e-06
-8.37224e-06
-1.86737e-06
-6.4584e-06
-1.91385e-06
-4.61201e-06
-1.84637e-06
-2.90279e-06
-1.70926e-06
-1.36842e-06
-1.53431e-06
-2.6483e-08
-1.34192e-06
1.11807e-06
-1.14456e-06
2.07115e-06
-9.53069e-07
2.84953e-06
-7.78379e-07
3.47386e-06
-6.24283e-07
3.96511e-06
-4.91231e-07
4.33848e-06
-3.73367e-07
4.60986e-06
-2.71382e-07
4.78778e-06
-1.77954e-07
4.88212e-06
-9.43682e-08
4.90093e-06
-1.88148e-08
4.85659e-06
4.43537e-08
4.75213e-06
1.04467e-07
4.58423e-06
1.67901e-07
4.36523e-06
2.18988e-07
4.09935e-06
2.65878e-07
3.78161e-06
3.17753e-07
3.42279e-06
3.58819e-07
3.0241e-06
3.98707e-07
2.57823e-06
4.4591e-07
2.09293e-06
4.85341e-07
1.58133e-06
5.1163e-07
1.04769e-06
5.3366e-07
5.20968e-07
5.26732e-07
5.00593e-08
4.70919e-07
-2.89396e-07
3.39457e-07
-3.75102e-07
8.57089e-08
-3.75083e-07
-5.59708e-06
1.08527e-05
-9.60249e-06
8.28943e-06
-1.19694e-05
5.14443e-06
-1.2871e-05
1.95261e-06
-1.26428e-05
-5.44861e-07
-1.16077e-05
-2.20531e-06
-1.00741e-05
-3.17528e-06
-8.29849e-06
-3.64297e-06
-6.45873e-06
-3.75362e-06
-4.67117e-06
-3.63387e-06
-3.00714e-06
-3.37328e-06
-1.50584e-06
-3.03562e-06
-1.84025e-07
-2.66374e-06
9.57283e-07
-2.28583e-06
1.92613e-06
-1.92191e-06
2.73343e-06
-1.58567e-06
3.39198e-06
-1.28282e-06
3.91415e-06
-1.0134e-06
4.31491e-06
-7.74146e-07
4.60661e-06
-5.63105e-07
4.8036e-06
-3.74954e-07
4.91503e-06
-2.05779e-07
4.95179e-06
-5.55399e-08
4.91696e-06
7.92227e-08
4.81881e-06
2.02656e-07
4.66823e-06
3.18519e-07
4.46508e-06
4.2218e-07
4.21225e-06
5.18734e-07
3.91916e-06
6.10848e-07
3.58295e-06
6.95035e-07
3.20649e-06
7.75208e-07
2.79679e-06
8.55666e-07
2.3569e-06
9.25273e-07
1.88736e-06
9.81197e-07
1.40307e-06
1.01798e-06
9.20881e-07
1.00894e-06
4.71562e-07
9.20249e-07
1.13688e-07
6.97342e-07
-7.76607e-08
2.77089e-07
-4.52731e-07
-5.64233e-06
1.6495e-05
-9.73216e-06
1.23793e-05
-1.21094e-05
7.52164e-06
-1.2973e-05
2.81624e-06
-1.2683e-05
-8.3484e-07
-1.16028e-05
-3.28555e-06
-1.00542e-05
-4.72395e-06
-8.29164e-06
-5.40547e-06
-6.48066e-06
-5.56458e-06
-4.73216e-06
-5.38242e-06
-3.11128e-06
-4.99418e-06
-1.65222e-06
-4.49466e-06
-3.68502e-07
-3.94751e-06
7.40199e-07
-3.39455e-06
1.68176e-06
-2.86347e-06
2.46686e-06
-2.37072e-06
3.10735e-06
-1.92329e-06
3.61597e-06
-1.522e-06
4.00661e-06
-1.16474e-06
4.29185e-06
-8.48303e-07
4.48449e-06
-5.67554e-07
4.59574e-06
-3.16957e-07
4.63429e-06
-9.40047e-08
4.60737e-06
1.06198e-07
4.52255e-06
2.87494e-07
4.38793e-06
4.53145e-07
4.2064e-06
6.03702e-07
3.98258e-06
7.42541e-07
3.72159e-06
8.71839e-07
3.42489e-06
9.9177e-07
3.0959e-06
1.10423e-06
2.7416e-06
1.20999e-06
2.36406e-06
1.30284e-06
1.96827e-06
1.37702e-06
1.56555e-06
1.42073e-06
1.16664e-06
1.40787e-06
7.8661e-07
1.30028e-06
4.4539e-07
1.03858e-06
1.69428e-07
5.53073e-07
-2.83295e-07
-6.24257e-06
2.27376e-05
-1.06327e-05
1.67694e-05
-1.30179e-05
9.90686e-06
-1.37052e-05
3.50359e-06
-1.31827e-05
-1.3574e-06
-1.18955e-05
-4.57279e-06
-1.01991e-05
-6.42026e-06
-8.34326e-06
-7.26134e-06
-6.48951e-06
-7.41829e-06
-4.73379e-06
-7.13818e-06
-3.1284e-06
-6.59952e-06
-1.69771e-06
-5.92533e-06
-4.48071e-07
-5.19708e-06
6.25069e-07
-4.46761e-06
1.53187e-06
-3.77025e-06
2.28477e-06
-3.12362e-06
2.89709e-06
-2.53562e-06
3.38264e-06
-2.00755e-06
3.7551e-06
-1.53721e-06
4.02726e-06
-1.12051e-06
4.21112e-06
-7.51447e-07
4.31779e-06
-4.2366e-07
4.35598e-06
-1.32228e-07
4.33376e-06
1.284e-07
4.25846e-06
3.62804e-07
4.13673e-06
5.7488e-07
3.97311e-06
7.67333e-07
3.77224e-06
9.4344e-07
3.53837e-06
1.10574e-06
3.27465e-06
1.25551e-06
2.98491e-06
1.39398e-06
2.67432e-06
1.52061e-06
2.34658e-06
1.63062e-06
2.00712e-06
1.71652e-06
1.66344e-06
1.76443e-06
1.32181e-06
1.74952e-06
9.87179e-07
1.63493e-06
6.5835e-07
1.36742e-06
3.29874e-07
8.81564e-07
4.6586e-08
-7.44911e-06
3.01867e-05
-1.22765e-05
2.15968e-05
-1.46458e-05
1.22761e-05
-1.50278e-05
3.88556e-06
-1.4108e-05
-2.27719e-06
-1.24556e-05
-6.22519e-06
-1.04781e-05
-8.39778e-06
-8.43303e-06
-9.3064e-06
-6.46876e-06
-9.38245e-06
-4.66213e-06
-8.94477e-06
-3.04673e-06
-8.21492e-06
-1.63152e-06
-7.34056e-06
-4.11649e-07
-6.41691e-06
6.24816e-07
-5.50411e-06
1.49289e-06
-4.63834e-06
2.20831e-06
-3.83904e-06
2.78664e-06
-3.11399e-06
3.24294e-06
-2.46389e-06
3.59124e-06
-1.8855e-06
3.8445e-06
-1.37372e-06
4.01446e-06
-9.21356e-07
4.11173e-06
-5.20884e-07
4.14537e-06
-1.65846e-07
4.12329e-06
1.5048e-07
4.05254e-06
4.33503e-07
3.93935e-06
6.88034e-07
3.78866e-06
9.18025e-07
3.60497e-06
1.12715e-06
3.39238e-06
1.31834e-06
3.15445e-06
1.49345e-06
2.89501e-06
1.65344e-06
2.61834e-06
1.79731e-06
2.32832e-06
1.92067e-06
2.02934e-06
2.01552e-06
1.72591e-06
2.06788e-06
1.42034e-06
2.0551e-06
1.11066e-06
1.94462e-06
7.85866e-07
1.69222e-06
4.24409e-07
1.24304e-06
4.71003e-07
-9.36462e-06
3.95513e-05
-1.47481e-05
2.69803e-05
-1.70519e-05
1.45799e-05
-1.69556e-05
3.78933e-06
-1.5439e-05
-3.79385e-06
-1.32465e-05
-8.41764e-06
-1.08561e-05
-1.07882e-05
-8.53038e-06
-1.16321e-05
-6.39687e-06
-1.1516e-05
-4.50387e-06
-1.08378e-05
-2.85898e-06
-9.85976e-06
-1.45049e-06
-8.74905e-06
-2.58593e-07
-7.60884e-06
7.39018e-07
-6.5017e-06
1.56407e-06
-5.4633e-06
2.23669e-06
-4.51158e-06
2.77522e-06
-3.65249e-06
3.19623e-06
-2.88484e-06
3.51454e-06
-2.20378e-06
3.74316e-06
-1.60235e-06
3.89389e-06
-1.07208e-06
3.97686e-06
-6.03806e-07
4.00122e-06
-1.9016e-07
3.97452e-06
1.77193e-07
3.90357e-06
5.04442e-07
3.79426e-06
7.97359e-07
3.65149e-06
1.06082e-06
3.47959e-06
1.29907e-06
3.28247e-06
1.51546e-06
3.06367e-06
1.71225e-06
2.82675e-06
1.89038e-06
2.5753e-06
2.04879e-06
2.31258e-06
2.1834e-06
2.04164e-06
2.28648e-06
1.76449e-06
2.34505e-06
1.48026e-06
2.33935e-06
1.18275e-06
2.24215e-06
8.56476e-07
2.0185e-06
4.74117e-07
1.62541e-06
9.45131e-07
-1.25066e-05
5.20578e-05
-1.84463e-05
3.292e-05
-2.04853e-05
1.6619e-05
-1.95878e-05
2.89182e-06
-1.71755e-05
-6.20612e-06
-1.42244e-05
-1.13687e-05
-1.12787e-05
-1.3734e-05
-8.58775e-06
-1.4323e-05
-6.23824e-06
-1.38655e-05
-4.23552e-06
-1.28405e-05
-2.5517e-06
-1.15436e-05
-1.14847e-06
-1.01522e-05
1.2703e-08
-8.76994e-06
9.66168e-07
-7.45512e-06
1.74186e-06
-6.23901e-06
2.36508e-06
-5.13485e-06
2.85729e-06
-4.14471e-06
3.23673e-06
-3.26428e-06
3.519e-06
-2.48607e-06
3.71744e-06
-1.80079e-06
3.84358e-06
-1.1982e-06
3.90768e-06
-6.67893e-07
3.91796e-06
-2.00438e-07
3.88208e-06
2.13071e-07
3.80642e-06
5.80125e-07
3.69648e-06
9.0734e-07
3.55692e-06
1.20042e-06
3.39181e-06
1.46419e-06
3.20479e-06
1.70248e-06
2.99915e-06
1.91789e-06
2.77799e-06
2.11155e-06
2.5442e-06
2.28259e-06
2.3002e-06
2.42741e-06
2.04764e-06
2.53905e-06
1.78658e-06
2.60613e-06
1.51384e-06
2.61209e-06
1.22086e-06
2.53514e-06
8.90619e-07
2.34877e-06
4.95417e-07
2.02064e-06
1.44056e-06
-1.82115e-05
7.02694e-05
-2.44174e-05
3.91259e-05
-2.5495e-05
1.76966e-05
-2.31074e-05
5.04203e-07
-1.93153e-05
-9.99814e-06
-1.53186e-05
-1.53654e-05
-1.16659e-05
-1.73867e-05
-8.53771e-06
-1.74511e-05
-5.94335e-06
-1.64599e-05
-3.82412e-06
-1.49597e-05
-2.10489e-06
-1.32628e-05
-7.15019e-07
-1.15421e-05
4.05386e-07
-9.89042e-06
1.30499e-06
-8.35475e-06
2.0223e-06
-6.9563e-06
2.58791e-06
-5.70044e-06
3.02634e-06
-4.58314e-06
3.3575e-06
-3.59546e-06
3.59768e-06
-2.72626e-06
3.76041e-06
-1.9635e-06
3.85705e-06
-1.29482e-06
3.8973e-06
-7.08148e-07
3.88924e-06
-1.92387e-07
3.83994e-06
2.62376e-07
3.75538e-06
6.64712e-07
3.64061e-06
1.02213e-06
3.49995e-06
1.34109e-06
3.33713e-06
1.62702e-06
3.1554e-06
1.88422e-06
2.95765e-06
2.11565e-06
2.74644e-06
2.32276e-06
2.52396e-06
2.50509e-06
2.2917e-06
2.65969e-06
2.05011e-06
2.78065e-06
1.79776e-06
2.85849e-06
1.52998e-06
2.87988e-06
1.23714e-06
2.828e-06
9.02371e-07
2.68356e-06
5.00184e-07
2.42284e-06
1.94074e-06
-3.03822e-05
0.000100652
-3.48571e-05
4.36008e-05
-3.27992e-05
1.56387e-05
-2.76297e-05
-4.66533e-06
-2.17667e-05
-1.58611e-05
-1.63945e-05
-2.07375e-05
-1.1898e-05
-2.18833e-05
-8.28949e-06
-2.10597e-05
-5.45056e-06
-1.92988e-05
-3.231e-06
-1.71792e-05
-1.49682e-06
-1.4997e-05
-1.39906e-07
-1.2899e-05
9.22745e-07
-1.09531e-05
1.754e-06
-9.18595e-06
2.40087e-06
-7.60316e-06
2.89888e-06
-6.19845e-06
3.27519e-06
-4.95945e-06
3.55097e-06
-3.87123e-06
3.74295e-06
-2.91821e-06
3.86459e-06
-2.0851e-06
3.92687e-06
-1.35708e-06
3.93895e-06
-7.20204e-07
3.90847e-06
-1.61868e-07
3.84188e-06
3.2899e-07
3.74462e-06
7.6198e-07
3.62127e-06
1.14548e-06
3.47569e-06
1.48668e-06
3.31116e-06
1.79156e-06
3.13049e-06
2.06488e-06
2.93611e-06
2.31004e-06
2.72997e-06
2.52891e-06
2.51355e-06
2.72153e-06
2.28749e-06
2.88575e-06
2.05126e-06
3.01688e-06
1.80235e-06
3.1074e-06
1.53524e-06
3.14701e-06
1.24006e-06
3.12321e-06
9.0108e-07
3.02256e-06
4.95976e-07
2.82796e-06
2.43672e-06
-4.79304e-05
0.000148582
-5.03455e-05
4.60158e-05
-4.23058e-05
7.59902e-06
-3.28112e-05
-1.416e-05
-2.41908e-05
-2.44815e-05
-1.71935e-05
-2.77349e-05
-1.17968e-05
-2.72798e-05
-7.73168e-06
-2.51248e-05
-4.68756e-06
-2.23429e-05
-2.41296e-06
-1.94539e-05
-7.0367e-07
-1.67063e-05
5.87829e-07
-1.41905e-05
1.56741e-06
-1.19326e-05
2.31081e-06
-9.92934e-06
2.87224e-06
-8.16462e-06
3.29101e-06
-6.61722e-06
3.59603e-06
-5.26447e-06
3.80903e-06
-4.08424e-06
3.94671e-06
-3.0559e-06
4.02208e-06
-2.16048e-06
4.04552e-06
-1.38051e-06
4.02548e-06
-7.00133e-07
3.96891e-06
-1.05263e-07
3.88158e-06
4.16325e-07
3.76832e-06
8.75252e-07
3.63311e-06
1.28071e-06
3.47928e-06
1.64052e-06
3.30962e-06
1.96123e-06
3.12643e-06
2.24807e-06
2.93161e-06
2.50488e-06
2.72651e-06
2.73402e-06
2.51193e-06
2.93613e-06
2.28777e-06
3.1099e-06
2.05271e-06
3.25194e-06
1.80354e-06
3.35658e-06
1.53432e-06
3.41625e-06
1.23547e-06
3.42209e-06
8.92825e-07
3.36523e-06
4.87374e-07
3.23342e-06
2.9241e-06
2.31661e-05
0.000191481
0.000231818
2.22038e-05
1.99097e-05
0.000193374
0.000232926
1.88015e-05
1.7527e-05
0.000198361
0.000229055
2.13984e-05
2.23008e-05
0.00020502
0.000224205
2.71503e-05
3.01695e-05
0.000211689
0.000220656
3.37187e-05
3.64106e-05
0.000214098
0.00021832
3.87463e-05
4.35747e-05
0.000210985
0.000217603
4.42921e-05
5.05332e-05
0.000205562
0.000214882
5.32542e-05
5.82166e-05
0.000196832
0.000209602
6.34969e-05
6.39978e-05
0.000199201
7.43983e-05
0.000182745
8.26902e-05
0.000163189
8.4288e-05
0.000145102
7.82906e-05
0.000130413
6.90846e-05
0.000118841
6.01759e-05
0.000109606
5.25133e-05
0.000102086
4.59678e-05
9.58504e-05
4.03027e-05
9.05837e-05
3.53572e-05
8.60489e-05
3.09975e-05
8.20698e-05
2.70991e-05
7.85153e-05
2.35558e-05
7.52882e-05
2.0286e-05
7.2315e-05
1.72303e-05
6.95397e-05
1.43469e-05
6.69189e-05
1.16068e-05
6.44189e-05
8.99006e-06
6.2013e-05
6.48311e-06
5.96798e-05
4.07721e-06
5.74027e-05
1.76736e-06
5.51692e-05
-4.48303e-07
5.29705e-05
-2.56883e-06
-4.59102e-06
-0.000144362
0.000166566
-0.000159924
1.55615e-05
-0.000128579
-3.13452e-05
2.70066e-05
-0.000155585
-2.00474e-05
0.000205415
-0.000112981
0.000108495
-0.000148285
3.95977e-06
3.17236e-05
-0.000153003
1.47338e-05
0.00021208
-5.06378e-05
0.000173866
-0.000123032
7.63545e-05
4.38507e-05
-0.000135159
2.62791e-05
0.000212951
-3.80073e-07
0.000200525
-6.96177e-05
0.000145592
7.88449e-05
-0.000104612
3.41245e-05
0.000212545
2.53143e-05
0.000209335
-1.37965e-05
0.000184703
0.000122546
-5.74979e-05
4.13078e-05
0.000209984
3.93714e-05
0.000211272
2.73713e-05
0.000196703
0.000149101
8.1636e-07
4.88111e-05
0.000205465
5.35309e-05
0.000206552
5.38169e-05
0.000196417
0.000155062
4.78557e-05
5.72246e-05
0.000201494
6.73228e-05
0.000196454
8.02947e-05
0.000183445
0.00014543
8.99275e-05
6.97296e-05
0.000195261
8.13366e-05
0.000184847
9.9662e-05
0.00016512
0.000128488
0.000116604
8.37126e-05
0.000185947
9.77756e-05
0.000170784
0.000117689
0.000145207
0.00010874
0.000137436
9.77931e-05
0.000170844
0.000114156
0.000154421
0.000132466
0.000126897
9.21603e-05
0.000149046
0.000103257
0.000151875
0.000120574
0.000137104
0.000134456
0.000113015
8.37988e-05
0.000142818
9.63889e-05
0.000133777
0.000111867
0.000121625
0.000122379
0.000102503
7.953e-05
0.000126648
8.38023e-05
0.000119059
9.63696e-05
0.000109058
0.000104746
9.41269e-05
7.6255e-05
0.000108021
7.15518e-05
0.000107683
8.14195e-05
9.91904e-05
8.82619e-05
8.72845e-05
7.32397e-05
9.12771e-05
6.13633e-05
9.88333e-05
6.91032e-05
9.14505e-05
7.46644e-05
8.17234e-05
7.04886e-05
7.74156e-05
5.2997e-05
9.1804e-05
5.9143e-05
8.53045e-05
6.368e-05
7.71864e-05
6.80118e-05
6.61568e-05
4.60093e-05
8.60974e-05
5.09879e-05
8.03259e-05
5.47545e-05
7.34198e-05
6.57694e-05
5.69969e-05
4.00949e-05
8.13598e-05
4.42247e-05
7.61961e-05
4.74234e-05
7.02211e-05
6.37173e-05
4.94754e-05
3.50219e-05
7.73353e-05
3.85335e-05
7.26845e-05
4.13126e-05
6.74419e-05
6.18199e-05
4.321e-05
3.05957e-05
7.38386e-05
3.36541e-05
6.96261e-05
3.61216e-05
6.49744e-05
6.00473e-05
3.78943e-05
2.6659e-05
7.07355e-05
2.93824e-05
6.69027e-05
3.16176e-05
6.27392e-05
5.83731e-05
3.32917e-05
2.30927e-05
6.79288e-05
2.55662e-05
6.44292e-05
2.76282e-05
6.06772e-05
5.67746e-05
2.92267e-05
1.98114e-05
6.53477e-05
2.20971e-05
6.21435e-05
2.40299e-05
5.87445e-05
5.52325e-05
2.5572e-05
1.67552e-05
6.29394e-05
1.88989e-05
5.99997e-05
2.07354e-05
5.6908e-05
5.37312e-05
2.22368e-05
1.38821e-05
6.06641e-05
1.59183e-05
5.79635e-05
1.76834e-05
5.5143e-05
5.22581e-05
1.91564e-05
1.1163e-05
5.84912e-05
1.31179e-05
5.60087e-05
1.48304e-05
5.34304e-05
5.08035e-05
1.6285e-05
8.57748e-06
5.63968e-05
1.04712e-05
5.41149e-05
1.21458e-05
5.17558e-05
4.93597e-05
1.35896e-05
6.1117e-06
5.43623e-05
7.95995e-06
5.22667e-05
9.60791e-06
5.01079e-05
4.79204e-05
1.10471e-05
3.75665e-06
5.2373e-05
5.57167e-06
5.04517e-05
7.2018e-06
4.84778e-05
4.64811e-05
8.6411e-06
1.50704e-06
5.04177e-05
3.29829e-06
4.86604e-05
4.91736e-06
4.68587e-05
4.50382e-05
6.36032e-06
-6.39435e-07
4.84883e-05
1.13495e-06
4.6886e-05
2.74802e-06
4.52456e-05
4.3589e-05
4.19717e-06
-2.68205e-06
-9.2027e-07
6.89953e-07
2.14677e-06
-9.0985e-05
8.39818e-05
-7.10492e-05
2.60801e-05
-5.33977e-05
-1.00525e-05
-3.82044e-05
-2.93533e-05
-2.63656e-05
-3.63202e-05
-1.76139e-05
-3.64865e-05
-1.13114e-05
-3.35824e-05
-6.8233e-06
-2.96129e-05
-3.62963e-06
-2.55366e-05
-1.34042e-06
-2.17431e-05
3.11894e-07
-1.83586e-05
1.51294e-06
-1.53916e-05
2.39076e-06
-1.28104e-05
3.03244e-06
-1.0571e-05
3.49803e-06
-8.6302e-06
3.82944e-06
-6.9486e-06
4.05654e-06
-5.49154e-06
4.20106e-06
-4.22876e-06
4.27922e-06
-3.13406e-06
4.30334e-06
-2.18459e-06
4.28304e-06
-1.3602e-06
4.22594e-06
-6.4302e-07
4.13821e-06
-1.75459e-08
4.02493e-06
5.29599e-07
3.89024e-06
1.00995e-06
3.73753e-06
1.43344e-06
3.56957e-06
1.8085e-06
3.38861e-06
2.14219e-06
3.19646e-06
2.44022e-06
2.99445e-06
2.70691e-06
2.78337e-06
2.94511e-06
2.56339e-06
3.15611e-06
2.33377e-06
3.33951e-06
2.09255e-06
3.49316e-06
1.83598e-06
3.61317e-06
1.55794e-06
3.69431e-06
1.24924e-06
3.73081e-06
8.97124e-07
3.71736e-06
4.85424e-07
3.64514e-06
3.40953e-06
-0.000114705
4.56847e-05
-8.54298e-05
-3.19553e-06
-6.05798e-05
-3.49025e-05
-4.09489e-05
-4.89842e-05
-2.663e-05
-5.06392e-05
-1.66295e-05
-4.6487e-05
-9.80117e-06
-4.04108e-05
-5.17408e-06
-3.424e-05
-2.02935e-06
-2.86814e-05
1.27481e-07
-2.38999e-05
1.61558e-06
-1.98467e-05
2.6502e-06
-1.64262e-05
3.3714e-06
-1.35316e-05
3.87136e-06
-1.1071e-05
4.21155e-06
-8.97036e-06
4.43352e-06
-7.17058e-06
4.56601e-06
-5.62404e-06
4.62933e-06
-4.29206e-06
4.63816e-06
-3.14286e-06
4.60341e-06
-2.14981e-06
4.53336e-06
-1.29012e-06
4.43441e-06
-5.44069e-07
4.31173e-06
1.05125e-07
4.1694e-06
6.71926e-07
4.01073e-06
1.16864e-06
3.83837e-06
1.60582e-06
3.65441e-06
1.99246e-06
3.4605e-06
2.3361e-06
3.25786e-06
2.64288e-06
3.04723e-06
2.91757e-06
2.82882e-06
3.16353e-06
2.6022e-06
3.38272e-06
2.3661e-06
3.57562e-06
2.11804e-06
3.74122e-06
1.85399e-06
3.87723e-06
1.56787e-06
3.98044e-06
1.25118e-06
4.04753e-06
8.92687e-07
4.07588e-06
4.78927e-07
4.05892e-06
3.88847e-06
-0.000113798
2.4323e-05
-8.88913e-05
-2.81021e-05
-6.20783e-05
-6.17155e-05
-3.99942e-05
-7.10683e-05
-2.43325e-05
-6.63009e-05
-1.38997e-05
-5.69199e-05
-7.07954e-06
-4.72309e-05
-2.70029e-06
-3.86193e-05
1.52275e-07
-3.15339e-05
2.00639e-06
-2.5754e-05
3.21852e-06
-2.10588e-05
4.01071e-06
-1.72184e-05
4.52299e-06
-1.40439e-05
4.84464e-06
-1.13926e-05
5.03331e-06
-9.15903e-06
5.12684e-06
-7.26413e-06
5.15059e-06
-5.64781e-06
5.12196e-06
-4.26341e-06
5.05311e-06
-3.074e-06
4.95281e-06
-2.04952e-06
4.82753e-06
-1.16484e-06
4.68218e-06
-3.98723e-07
4.52053e-06
2.66771e-07
4.34561e-06
8.46855e-07
4.15974e-06
1.35453e-06
3.9647e-06
1.80087e-06
3.76185e-06
2.19531e-06
3.55218e-06
2.54578e-06
3.33625e-06
2.85882e-06
3.11423e-06
3.1396e-06
2.88576e-06
3.392e-06
2.64988e-06
3.6186e-06
2.40482e-06
3.82068e-06
2.14774e-06
3.99831e-06
1.87444e-06
4.15054e-06
1.57905e-06
4.27585e-06
1.25375e-06
4.37285e-06
8.88794e-07
4.44086e-06
4.72997e-07
4.47474e-06
4.36147e-06
-0.000101996
2.17069e-05
-8.26682e-05
-4.74297e-05
-5.66477e-05
-8.77359e-05
-3.4253e-05
-9.3463e-05
-1.8786e-05
-8.17678e-05
-9.01036e-06
-6.66955e-05
-3.02879e-06
-5.32125e-05
7.03222e-07
-4.23514e-05
2.9512e-06
-3.37819e-05
4.30985e-06
-2.71127e-05
5.1214e-06
-2.18704e-05
5.58963e-06
-1.76866e-05
5.83859e-06
-1.42928e-05
5.9448e-06
-1.14988e-05
5.95605e-06
-9.17027e-06
5.90262e-06
-7.21069e-06
5.8041e-06
-5.54925e-06
5.67334e-06
-4.13263e-06
5.51898e-06
-2.91965e-06
5.34696e-06
-1.87751e-06
5.16144e-06
-9.79322e-07
4.96545e-06
-2.02729e-07
4.76125e-06
4.70972e-07
4.55054e-06
1.05758e-06
4.33454e-06
1.57055e-06
4.1141e-06
2.02132e-06
3.88978e-06
2.41964e-06
3.66182e-06
2.77374e-06
3.43016e-06
3.09048e-06
3.19434e-06
3.37542e-06
2.95347e-06
3.63287e-06
2.7061e-06
3.86598e-06
2.45004e-06
4.07675e-06
2.18218e-06
4.26618e-06
1.89824e-06
4.43448e-06
1.5926e-06
4.58151e-06
1.25815e-06
4.70732e-06
8.86431e-07
4.81261e-06
4.68191e-07
4.89299e-06
4.82966e-06
-7.21396e-05
3.63486e-05
-6.23724e-05
-5.71968e-05
-4.17272e-05
-0.000108381
-2.24937e-05
-0.000112697
-9.4703e-06
-9.47913e-05
-1.74313e-06
-7.44228e-05
2.63803e-06
-5.75937e-05
5.04058e-06
-4.47539e-05
6.34623e-06
-3.50876e-05
7.01022e-06
-2.77767e-05
7.2984e-06
-2.21586e-05
7.36487e-06
-1.77531e-05
7.29983e-06
-1.42278e-05
7.15664e-06
-1.13557e-05
6.96712e-06
-8.98076e-06
6.75028e-06
-6.99385e-06
6.51756e-06
-5.31651e-06
6.27582e-06
-3.89088e-06
6.02918e-06
-2.67302e-06
5.78012e-06
-1.62843e-06
5.53004e-06
-7.29236e-07
5.27981e-06
4.74924e-08
5.02995e-06
7.20834e-07
4.7807e-06
1.30686e-06
4.53205e-06
1.81922e-06
4.28387e-06
2.26952e-06
4.03582e-06
2.66768e-06
3.78742e-06
3.02214e-06
3.5379e-06
3.33999e-06
3.28624e-06
3.62708e-06
3.03102e-06
3.8881e-06
2.77032e-06
4.12669e-06
2.5016e-06
4.34547e-06
2.22153e-06
4.54624e-06
1.92584e-06
4.73018e-06
1.60916e-06
4.8982e-06
1.26505e-06
5.05145e-06
8.86136e-07
5.19153e-06
4.64791e-07
5.31432e-06
5.29443e-06
-2.128e-05
5.84449e-05
-2.40793e-05
-5.43975e-05
-1.50043e-05
-0.000117456
-3.8467e-06
-0.000123854
3.81253e-06
-0.00010245
7.74675e-06
-7.83569e-05
9.50303e-06
-5.935e-05
1.01438e-05
-4.53946e-05
1.02271e-05
-3.5171e-05
1.00293e-05
-2.75788e-05
9.69337e-06
-2.18227e-05
9.29544e-06
-1.73552e-05
8.87614e-06
-1.38085e-05
8.4569e-06
-1.09364e-05
8.04845e-06
-8.57232e-06
7.65548e-06
-6.60089e-06
7.27938e-06
-4.94042e-06
6.91987e-06
-3.53138e-06
6.57578e-06
-2.32892e-06
6.24555e-06
-1.29819e-06
5.92756e-06
-4.11247e-07
5.62028e-06
3.54774e-07
5.3223e-06
1.01883e-06
5.03228e-06
1.59691e-06
4.74894e-06
2.10258e-06
4.47107e-06
2.54739e-06
4.19745e-06
2.9413e-06
3.92679e-06
3.29279e-06
3.65768e-06
3.6091e-06
3.38849e-06
3.89627e-06
3.1173e-06
4.1593e-06
2.84178e-06
4.40221e-06
2.55907e-06
4.62817e-06
2.26569e-06
4.83962e-06
1.95736e-06
5.03851e-06
1.62901e-06
5.22657e-06
1.27474e-06
5.40572e-06
8.88133e-07
5.57812e-06
4.62892e-07
5.73953e-06
5.75731e-06
3.22934e-05
7.40072e-05
2.35964e-05
-4.57004e-05
2.07572e-05
-0.000114617
2.04304e-05
-0.000123527
1.99106e-05
-0.000101931
1.86911e-05
-7.71375e-05
1.71841e-05
-5.7843e-05
1.57177e-05
-4.39283e-05
1.44002e-05
-3.38536e-05
1.32404e-05
-2.6419e-05
1.22212e-05
-2.08035e-05
1.13224e-05
-1.64563e-05
1.05255e-05
-1.30116e-05
9.81477e-06
-1.02257e-05
9.17687e-06
-7.93442e-06
8.60036e-06
-6.02437e-06
8.07552e-06
-4.41558e-06
7.5942e-06
-3.05007e-06
7.14949e-06
-1.8842e-06
6.73555e-06
-8.84254e-07
6.3475e-06
-2.32091e-08
5.9813e-06
7.20982e-07
5.6335e-06
1.36666e-06
5.30112e-06
1.92932e-06
4.98158e-06
2.42213e-06
4.67257e-06
2.85641e-06
4.37193e-06
3.24193e-06
4.07762e-06
3.58711e-06
3.78753e-06
3.89919e-06
3.49947e-06
4.18433e-06
3.21105e-06
4.44773e-06
2.91954e-06
4.69372e-06
2.62182e-06
4.92588e-06
2.31427e-06
5.14718e-06
1.99264e-06
5.36014e-06
1.65209e-06
5.56711e-06
1.28723e-06
5.77056e-06
8.92428e-07
5.97289e-06
4.62472e-07
6.16946e-06
6.21978e-06
8.69034e-05
7.70312e-05
7.13712e-05
-3.01682e-05
5.80478e-05
-0.000101294
4.60738e-05
-0.000111553
3.66657e-05
-9.25225e-05
2.98615e-05
-7.03334e-05
2.49511e-05
-5.29327e-05
2.13374e-05
-4.03146e-05
1.86073e-05
-3.11234e-05
1.64807e-05
-2.42924e-05
1.47753e-05
-1.90981e-05
1.33734e-05
-1.50544e-05
1.21971e-05
-1.18354e-05
1.11936e-05
-9.22223e-06
1.03252e-05
-7.066e-06
9.56419e-06
-5.2634e-06
8.88984e-06
-3.74124e-06
8.28597e-06
-2.4462e-06
7.73991e-06
-1.33815e-06
7.24153e-06
-3.85885e-07
6.78269e-06
4.35623e-07
6.35679e-06
1.1469e-06
5.95834e-06
1.76515e-06
5.58275e-06
2.30494e-06
5.22609e-06
2.77879e-06
4.88498e-06
3.19753e-06
4.55635e-06
3.57056e-06
4.23737e-06
3.90609e-06
3.92531e-06
4.21127e-06
3.61741e-06
4.49224e-06
3.31082e-06
4.75432e-06
3.00247e-06
5.00206e-06
2.68901e-06
5.23934e-06
2.36667e-06
5.46951e-06
2.03126e-06
5.69554e-06
1.67814e-06
5.92022e-06
1.30234e-06
6.14633e-06
8.98877e-07
6.37633e-06
4.63428e-07
6.6049e-06
6.68321e-06
0.000121684
7.19516e-05
0.000110619
-1.9104e-05
8.99054e-05
-8.05794e-05
6.80993e-05
-8.97474e-05
5.12313e-05
-7.56545e-05
3.97543e-05
-5.88564e-05
3.1985e-05
-4.51633e-05
2.65363e-05
-3.48659e-05
2.25687e-05
-2.71558e-05
1.95744e-05
-2.12982e-05
1.72404e-05
-1.67641e-05
1.53699e-05
-1.31839e-05
1.38359e-05
-1.03013e-05
1.25534e-05
-7.93974e-06
1.14636e-05
-5.97621e-06
1.05244e-05
-4.32418e-06
9.70471e-06
-2.92158e-06
8.98119e-06
-1.72268e-06
8.33575e-06
-6.92712e-07
7.75423e-06
1.95621e-07
7.22542e-06
9.64435e-07
6.74024e-06
1.6321e-06
6.29128e-06
2.21414e-06
5.87236e-06
2.72387e-06
5.47833e-06
3.17284e-06
5.10473e-06
3.57114e-06
4.74761e-06
3.92769e-06
4.40339e-06
4.25031e-06
4.06873e-06
4.54593e-06
3.74036e-06
4.82061e-06
3.41501e-06
5.07967e-06
3.08928e-06
5.32778e-06
2.7596e-06
5.56901e-06
2.42211e-06
5.80699e-06
2.07263e-06
6.04501e-06
1.7067e-06
6.28612e-06
1.31972e-06
6.53328e-06
9.07223e-07
6.78881e-06
4.65601e-07
7.04652e-06
7.14881e-06
0.00014929
6.00971e-05
0.000138227
-8.04024e-06
0.000109817
-5.21698e-05
8.18839e-05
-6.18143e-05
6.11763e-05
-5.4947e-05
4.71507e-05
-4.48308e-05
3.7623e-05
-3.56357e-05
3.09233e-05
-2.81662e-05
2.604e-05
-2.22726e-05
2.23619e-05
-1.76201e-05
1.95083e-05
-1.39105e-05
1.72364e-05
-1.0912e-05
1.53875e-05
-8.45235e-06
1.38542e-05
-6.40646e-06
1.25621e-05
-4.68408e-06
1.14577e-05
-3.21984e-06
1.0502e-05
-1.96584e-06
9.66533e-06
-8.86058e-07
8.92521e-06
4.7395e-08
8.26396e-06
8.56867e-07
7.66758e-06
1.56082e-06
7.1248e-06
2.17489e-06
6.62645e-06
2.7125e-06
6.16496e-06
3.18538e-06
5.73397e-06
3.60384e-06
5.32805e-06
3.97708e-06
4.94243e-06
4.31331e-06
4.57285e-06
4.61988e-06
4.21539e-06
4.90339e-06
3.86629e-06
5.1697e-06
3.5219e-06
5.42406e-06
3.17855e-06
5.67113e-06
2.83244e-06
5.9151e-06
2.47964e-06
6.15979e-06
2.11599e-06
6.40864e-06
1.7372e-06
6.6649e-06
1.33892e-06
6.93153e-06
9.1713e-07
7.2106e-06
4.68792e-07
7.49486e-06
7.61761e-06
0.000154412
5.47311e-05
0.000139564
6.80723e-06
0.00011178
-2.43859e-05
8.55823e-05
-3.56163e-05
6.57472e-05
-3.51118e-05
5.16065e-05
-3.06902e-05
4.15585e-05
-2.55876e-05
3.42758e-05
-2.08834e-05
2.88588e-05
-1.68556e-05
2.47245e-05
-1.34858e-05
2.14919e-05
-1.06779e-05
1.89084e-05
-8.32848e-06
1.68034e-05
-6.34735e-06
1.5059e-05
-4.66209e-06
1.35919e-05
-3.21699e-06
1.23417e-05
-1.96961e-06
1.12636e-05
-8.87774e-07
1.03239e-05
5.36655e-08
9.49645e-06
8.74837e-07
8.76086e-06
1.59245e-06
8.10089e-06
2.2208e-06
7.50345e-06
2.77234e-06
6.95787e-06
3.25809e-06
6.45535e-06
3.68791e-06
5.98852e-06
4.07069e-06
5.55105e-06
4.41455e-06
5.13744e-06
4.7269e-06
4.74282e-06
5.01449e-06
4.36274e-06
5.28347e-06
3.99302e-06
5.53943e-06
3.62965e-06
5.78742e-06
3.26871e-06
6.03206e-06
2.90624e-06
6.27756e-06
2.53822e-06
6.52781e-06
2.16051e-06
6.78635e-06
1.76894e-06
7.05646e-06
1.35941e-06
7.34106e-06
9.28207e-07
7.6418e-06
4.72782e-07
7.95028e-06
8.09038e-06
0.000140953
5.65955e-05
0.000126185
2.15754e-05
0.000104478
-2.67901e-06
8.34642e-05
-1.46021e-05
6.64854e-05
-1.8133e-05
5.35618e-05
-1.77666e-05
4.38687e-05
-1.58945e-05
3.6557e-05
-1.35718e-05
3.09587e-05
-1.12573e-05
2.65957e-05
-9.12278e-06
2.31333e-05
-7.21556e-06
2.0338e-05
-5.53311e-06
1.80449e-05
-4.05431e-06
1.61367e-05
-2.75385e-06
1.4528e-05
-1.60831e-06
1.31559e-05
-5.97522e-07
1.1973e-05
2.95098e-07
1.09431e-05
1.08356e-06
1.0038e-05
1.77996e-06
9.23525e-06
2.39515e-06
8.51713e-06
2.93893e-06
7.86914e-06
3.42034e-06
7.27947e-06
3.84778e-06
6.73832e-06
4.22907e-06
6.23743e-06
4.57158e-06
5.76976e-06
4.88221e-06
5.3292e-06
5.16746e-06
4.91031e-06
5.43337e-06
4.50819e-06
5.68559e-06
4.11831e-06
5.92931e-06
3.73634e-06
6.16937e-06
3.35815e-06
6.41024e-06
2.97964e-06
6.65607e-06
2.59671e-06
6.91074e-06
2.20524e-06
7.17781e-06
1.80117e-06
7.46053e-06
1.38058e-06
7.76163e-06
9.40033e-07
8.08233e-06
4.77338e-07
8.41296e-06
8.56771e-06
0.000122941
6.03021e-05
0.00011116
3.33572e-05
9.50216e-05
1.34589e-05
7.88206e-05
1.59892e-06
6.49019e-05
-4.21436e-06
5.36714e-05
-6.5361e-06
4.48136e-05
-7.03682e-06
3.78536e-05
-6.61172e-06
3.23519e-05
-5.75566e-06
2.79576e-05
-4.72845e-06
2.44048e-05
-3.66277e-06
2.14959e-05
-2.62428e-06
1.90849e-05
-1.64329e-06
1.70632e-05
-7.32187e-07
1.53497e-05
1.05251e-07
1.38828e-05
8.694e-07
1.26153e-05
1.56259e-06
1.15104e-05
2.18843e-06
1.0539e-05
2.75132e-06
9.67792e-06
3.25622e-06
8.90837e-06
3.70849e-06
8.21503e-06
4.11368e-06
7.58531e-06
4.47751e-06
7.00865e-06
4.80572e-06
6.47617e-06
5.10405e-06
5.98024e-06
5.37813e-06
5.51423e-06
5.63346e-06
5.07229e-06
5.87532e-06
4.64912e-06
6.10876e-06
4.23988e-06
6.33855e-06
3.84002e-06
6.56922e-06
3.4452e-06
6.80505e-06
3.05122e-06
7.05006e-06
2.65392e-06
7.30805e-06
2.2492e-06
7.58253e-06
1.83309e-06
7.87664e-06
1.40182e-06
8.19289e-06
9.52166e-07
8.53198e-06
4.82221e-07
8.88289e-06
9.04992e-06
0.000105322
6.30007e-05
9.6926e-05
4.17533e-05
8.52654e-05
2.51195e-05
7.30448e-05
1.38194e-05
6.19407e-05
6.88979e-06
5.24992e-05
2.9054e-06
4.46932e-05
7.69236e-07
3.83114e-05
-2.29886e-07
3.31008e-05
-5.45143e-07
2.88296e-05
-4.57237e-07
2.53044e-05
-1.37567e-07
2.23709e-05
3.09261e-07
1.99082e-05
8.19314e-07
1.78228e-05
1.35322e-06
1.60419e-05
1.88621e-06
1.45086e-05
2.40272e-06
1.31781e-05
2.89308e-06
1.20147e-05
3.35174e-06
1.09899e-05
3.77612e-06
1.00804e-05
4.16574e-06
9.26718e-06
4.5217e-06
8.53462e-06
4.84624e-06
7.86967e-06
5.14246e-06
7.26135e-06
5.41403e-06
6.70034e-06
5.66505e-06
6.1786e-06
5.89985e-06
5.68915e-06
6.12291e-06
5.22578e-06
6.3387e-06
4.78292e-06
6.55162e-06
4.35547e-06
6.76599e-06
3.93872e-06
6.98597e-06
3.52818e-06
7.21558e-06
3.11955e-06
7.4587e-06
2.70865e-06
7.71897e-06
2.2914e-06
7.99978e-06
1.86389e-06
8.30414e-06
1.4225e-06
8.63427e-06
9.64163e-07
8.99031e-06
4.87192e-07
9.35984e-06
9.5371e-06
8.98823e-05
6.43955e-05
8.42465e-05
4.73892e-05
7.6011e-05
3.3355e-05
6.69499e-05
2.28805e-05
5.82659e-05
1.55737e-05
5.04991e-05
1.06722e-05
4.37894e-05
7.47894e-06
3.80934e-05
5.46613e-06
3.32937e-05
4.25456e-06
2.92551e-05
3.58141e-06
2.58496e-05
3.26795e-06
2.29657e-05
3.19311e-06
2.05104e-05
3.27465e-06
1.84074e-05
3.4562e-06
1.6595e-05
3.69857e-06
1.50233e-05
3.97441e-06
1.36517e-05
4.26467e-06
1.24471e-05
4.55633e-06
1.13824e-05
4.84083e-06
1.04352e-05
5.11296e-06
9.58687e-06
5.37001e-06
8.82192e-06
5.61119e-06
8.12723e-06
5.83714e-06
7.49169e-06
6.04957e-06
6.90574e-06
6.25098e-06
6.36114e-06
6.44444e-06
5.85066e-06
6.6334e-06
5.36788e-06
6.82148e-06
4.90703e-06
7.01247e-06
4.46287e-06
7.21014e-06
4.03053e-06
7.4183e-06
3.60543e-06
7.64069e-06
3.18322e-06
7.88092e-06
2.75969e-06
8.1425e-06
2.33082e-06
8.42865e-06
1.89276e-06
8.74219e-06
1.442e-06
9.08502e-06
9.75583e-07
9.45671e-06
4.92014e-07
9.8434e-06
1.00291e-05
7.69684e-05
6.48426e-05
7.33528e-05
5.10047e-05
6.76434e-05
3.90643e-05
6.10041e-05
2.95199e-05
5.42981e-05
2.22798e-05
4.80073e-05
1.6963e-05
4.23424e-05
1.31439e-05
3.73584e-05
1.04501e-05
3.30292e-05
8.58382e-06
2.92917e-05
7.31888e-06
2.60716e-05
6.48811e-06
2.32952e-05
5.96942e-06
2.0896e-05
5.6739e-06
1.88156e-05
5.53658e-06
1.70045e-05
5.50969e-06
1.54208e-05
5.55812e-06
1.40293e-05
5.65613e-06
1.28006e-05
5.78506e-06
1.17098e-05
5.93163e-06
1.0736e-05
6.08671e-06
9.8616e-06
6.24438e-06
9.07161e-06
6.40119e-06
8.35318e-06
6.55557e-06
7.69531e-06
6.70743e-06