/*--------------------------------*- C++ -*----------------------------------*\
| =========                 |                                                 |
| \\      /  F ield         | OpenFOAM: The Open Source CFD Toolbox           |
|  \\    /   O peration     | Version:  5.0                                   |
|   \\  /    A nd           | Web:      www.OpenFOAM.org                      |
|    \\/     M anipulation  |                                                 |
\*---------------------------------------------------------------------------*/
FoamFile
{
    version     2.0;
    format      ascii;
    class       surfaceScalarField;
    location    "0.85";
    object      alphaPhi10;
}
// * * * * * * * * * * * * * * * * * * * * * * * * * * * * * * * * * * * * * //

dimensions      [0 3 -1 0 0 0 0];

internalField   nonuniform List<scalar> 
3731
(
-9.93792e-07
-2.05555e-06
-9.93857e-07
-1.7513e-06
-3.73956e-06
-2.74515e-06
-1.81465e-06
-5.33489e-06
-4.55981e-06
-1.69958e-06
-6.8874e-06
-6.25939e-06
-1.56858e-06
-8.33806e-06
-7.82797e-06
-1.38048e-06
-9.62747e-06
-9.20846e-06
-1.01374e-06
-1.07228e-05
-1.02222e-05
-3.43499e-07
-1.16066e-05
-1.05657e-05
8.80853e-07
-1.24218e-05
-9.68484e-06
3.34869e-06
-1.37663e-05
-6.33615e-06
1.24892e-05
-1.3385e-05
3.51229e-06
9.65837e-06
-1.67551e-05
2.02674e-05
-3.89851e-05
2.22299e-05
-6.05454e-05
2.15603e-05
-7.93564e-05
1.8811e-05
-9.43887e-05
1.50323e-05
-0.000105448
1.10595e-05
-0.000112753
7.30455e-06
-0.000116626
3.8732e-06
-0.000117416
7.90598e-07
-0.000115917
-1.50017e-06
-0.000113024
-2.89282e-06
-0.000109332
-3.69149e-06
-0.000105132
-4.19984e-06
-0.000100577
-4.55521e-06
-9.58056e-05
-4.77146e-06
-9.1011e-05
-4.79462e-06
-8.63103e-05
-4.70075e-06
-8.15252e-05
-4.78503e-06
-7.63555e-05
-5.16968e-06
-7.0634e-05
-5.72151e-06
-6.43659e-05
-6.26812e-06
-5.77641e-05
-6.60178e-06
-5.10664e-05
-6.69773e-06
-4.43986e-05
-6.66784e-06
-3.7792e-05
-6.6066e-06
-3.12399e-05
-6.55209e-06
-2.47476e-05
-6.49227e-06
-1.83628e-05
-6.38479e-06
-1.21718e-05
-6.19106e-06
-6.26209e-06
-5.90955e-06
-6.97182e-07
-5.5647e-06
4.45535e-06
-5.15147e-06
9.01458e-06
-4.55366e-06
1.25324e-05
-3.51782e-06
1.43078e-05
-1.77541e-06
1.31151e-05
1.18815e-06
7.74407e-06
5.37104e-06
7.48483e-06
-7.49625e-06
-5.88877e-06
-2.68171e-05
2.91333e-05
-5.00176e-05
4.34679e-05
-7.19594e-05
4.41718e-05
-8.92442e-05
3.88451e-05
-0.000101436
3.10026e-05
-0.000109356
2.29521e-05
-0.000114061
1.57678e-05
-0.000116388
9.69213e-06
-0.000117105
4.63703e-06
-0.000116808
5.15254e-07
-0.000115671
-2.677e-06
-0.00011344
-5.1622e-06
-0.000110386
-6.74546e-06
-0.000106688
-7.89766e-06
-0.000102418
-8.8295e-06
-9.76954e-05
-9.4939e-06
-9.27507e-05
-9.73922e-06
-8.78152e-05
-9.63603e-06
-8.28317e-05
-9.76835e-06
-7.75685e-05
-1.04329e-05
-7.19109e-05
-1.13792e-05
-6.58628e-05
-1.23162e-05
-5.9602e-05
-1.28625e-05
-5.32976e-05
-1.30021e-05
-4.70346e-05
-1.29308e-05
-4.08307e-05
-1.28104e-05
-3.46786e-05
-1.27042e-05
-2.85874e-05
-1.25835e-05
-2.26095e-05
-1.23627e-05
-1.68358e-05
-1.19646e-05
-1.13594e-05
-1.13858e-05
-6.24414e-06
-1.06799e-05
-1.56263e-06
-9.83558e-06
2.53198e-06
-8.65057e-06
5.78361e-06
-6.70942e-06
7.89857e-06
-3.84384e-06
8.44982e-06
6.36574e-07
6.76169e-06
7.05923e-06
1.36226e-05
-2.12941e-05
1.52188e-05
-4.39696e-05
5.18094e-05
-6.40033e-05
6.35019e-05
-8.00619e-05
6.02305e-05
-9.17403e-05
5.05236e-05
-9.9931e-05
3.91939e-05
-0.000105624
2.86477e-05
-0.000109504
1.96602e-05
-0.000111994
1.2207e-05
-0.000113328
6.01521e-06
-0.000110869
8.76709e-07
-0.000106899
-3.17775e-06
-0.000103712
-5.62055e-06
-0.000101156
-6.26604e-06
-0.000100971
-8.14179e-06
-0.000100223
-1.0574e-05
-9.65712e-05
-1.35649e-05
-9.17738e-05
-1.45394e-05
-8.69021e-05
-1.45089e-05
-8.20009e-05
-1.46704e-05
-7.68011e-05
-1.5633e-05
-7.12983e-05
-1.68819e-05
-6.54974e-05
-1.81166e-05
-5.95947e-05
-1.87652e-05
-5.37158e-05
-1.88806e-05
-4.79044e-05
-1.87404e-05
-4.21561e-05
-1.85566e-05
-3.64455e-05
-1.84148e-05
-3.07747e-05
-1.82542e-05
-2.51964e-05
-1.7941e-05
-1.98126e-05
-1.73483e-05
-1.47285e-05
-1.64698e-05
-1.00132e-05
-1.53948e-05
-5.72407e-06
-1.41242e-05
-1.95824e-06
-1.24273e-05
1.10144e-06
-9.69432e-06
3.20322e-06
-5.75449e-06
4.33732e-06
-4.11395e-07
3.96579e-06
7.43086e-06
1.80405e-05
-2.79138e-05
4.31805e-05
-5.04394e-05
7.43356e-05
-6.76463e-05
8.07093e-05
-8.04349e-05
7.30192e-05
-8.98233e-05
5.99127e-05
-9.67812e-05
4.61542e-05
-0.000101919
3.37935e-05
-0.000105599
2.33685e-05
-0.000108033
1.47279e-05
-0.000109325
7.52131e-06
-0.000109218
1.48624e-06
-9.47424e-05
-3.2943e-06
-7.33136e-05
-5.32616e-06
-7.18215e-05
-7.71295e-06
-7.01862e-05
-9.6671e-06
-6.94013e-05
-1.12524e-05
-7.71919e-05
-1.28125e-05
-7.96729e-05
-1.35277e-05
-8.11591e-05
-1.43276e-05
-7.96755e-05
-1.6778e-05
-7.49217e-05
-2.0437e-05
-6.97641e-05
-2.20452e-05
-6.42866e-05
-2.36018e-05
-5.87795e-05
-2.42722e-05
-5.33642e-05
-2.42957e-05
-4.80484e-05
-2.40553e-05
-4.27835e-05
-2.38045e-05
-3.7551e-05
-2.36183e-05
-3.23213e-05
-2.3456e-05
-2.71271e-05
-2.31341e-05
-2.21036e-05
-2.23712e-05
-1.7369e-05
-2.12041e-05
-1.29903e-05
-1.9773e-05
-9.00473e-06
-1.81101e-05
-5.5015e-06
-1.59303e-05
-2.42025e-06
-1.28193e-05
-2.16286e-07
-7.97765e-06
1.07458e-06
-1.72077e-06
1.474e-06
7.04219e-06
1.99405e-05
-2.96299e-05
7.30052e-05
-5.13302e-05
9.60364e-05
-6.693e-05
9.63095e-05
-7.84236e-05
8.45133e-05
-8.70621e-05
6.85518e-05
-9.35834e-05
5.26775e-05
-9.84058e-05
3.86253e-05
-0.000101826
2.68209e-05
-0.000104069
1.70467e-05
-0.000105355
8.90956e-06
-0.000105597
2.06616e-06
-9.2837e-05
-3.57564e-06
-7.16664e-05
-7.21342e-06
-6.85883e-05
-1.0848e-05
-6.63019e-05
-1.215e-05
-6.40359e-05
-1.36201e-05
-6.1382e-05
-1.56949e-05
-5.88871e-05
-1.62761e-05
-5.64968e-05
-1.68226e-05
-6.02931e-05
-1.76464e-05
-6.70924e-05
-2.00223e-05
-6.69115e-05
-2.41233e-05
-6.23184e-05
-2.87299e-05
-5.73089e-05
-2.92816e-05
-5.24155e-05
-2.91889e-05
-4.76461e-05
-2.88245e-05
-4.29509e-05
-2.84984e-05
-3.81855e-05
-2.83199e-05
-3.33088e-05
-2.8105e-05
-2.85904e-05
-2.75788e-05
-2.38981e-05
-2.70556e-05
-1.94743e-05
-2.56239e-05
-1.53731e-05
-2.38712e-05
-1.16008e-05
-2.18822e-05
-8.25829e-06
-1.92727e-05
-5.41112e-06
-1.56662e-05
-2.94735e-06
-1.05624e-05
-1.34555e-06
-3.02809e-06
-6.83855e-07
5.6871e-06
1.92566e-05
-2.89882e-05
0.000101992
-4.95424e-05
0.000116591
-6.41552e-05
0.000110923
-7.50683e-05
9.54268e-05
-8.33791e-05
7.68629e-05
-8.96702e-05
5.89707e-05
-9.43098e-05
4.32698e-05
-9.75664e-05
3.00896e-05
-9.96304e-05
1.9139e-05
-0.000100701
1.00446e-05
-0.00010068
2.44813e-06
-9.97747e-05
-3.92909e-06
-9.61746e-05
-9.20435e-06
-8.02234e-05
-1.3483e-05
-6.75889e-05
-1.63377e-05
-6.23592e-05
-1.90574e-05
-5.91558e-05
-1.92162e-05
-5.61251e-05
-1.97439e-05
-5.31741e-05
-2.01858e-05
-5.07678e-05
-2.07494e-05
-4.86006e-05
-2.24838e-05
-6.4158e-05
-3.00405e-05
-5.97977e-05
-3.30902e-05
-5.536e-05
-3.37191e-05
-5.10011e-05
-3.35475e-05
-4.68002e-05
-3.30249e-05
-4.2698e-05
-3.25995e-05
-3.85831e-05
-3.24314e-05
-3.41923e-05
-3.23672e-05
-2.89694e-05
-3.15989e-05
-2.50486e-05
-2.9407e-05
-2.09696e-05
-2.90031e-05
-1.71424e-05
-2.74595e-05
-1.35314e-05
-2.54845e-05
-1.02861e-05
-2.25177e-05
-7.51632e-06
-1.84266e-05
-5.14482e-06
-1.28924e-05
-2.8823e-06
-4.9725e-06
-1.74441e-06
4.11072e-06
1.75122e-05
-2.72723e-05
0.000129264
-4.62556e-05
0.000135574
-5.98145e-05
0.000124482
-7.00575e-05
0.00010567
-7.79126e-05
8.47184e-05
-8.40044e-05
6.50633e-05
-8.87681e-05
4.80363e-05
-9.22404e-05
3.35662e-05
-9.43319e-05
2.1235e-05
-9.52269e-05
1.09392e-05
-9.56104e-05
2.63743e-06
-9.49609e-05
-4.45095e-06
-9.34797e-05
-1.03495e-05
-9.1228e-05
-1.55978e-05
-8.68516e-05
-2.05241e-05
-7.30016e-05
-2.46118e-05
-6.04205e-05
-2.59341e-05
-5.49697e-05
-2.58938e-05
-5.1653e-05
-2.41948e-05
-4.83967e-05
-2.52856e-05
-5.98255e-05
-3.37989e-05
-6.05987e-05
-3.63547e-05
-5.72574e-05
-3.73138e-05
-5.31724e-05
-3.78041e-05
-4.92587e-05
-3.74607e-05
-4.56096e-05
-3.66722e-05
-4.21091e-05
-3.60979e-05
-3.86045e-05
-3.59327e-05
-3.49776e-05
-3.59864e-05
-3.06348e-05
-3.58067e-05
-2.32906e-05
-3.13934e-05
-1.80148e-05
-2.57191e-05
-1.66901e-05
-2.15722e-05
-1.46093e-05
-2.55097e-05
-1.15621e-05
-2.55522e-05
-8.83902e-06
-2.11403e-05
-6.60053e-06
-1.51087e-05
-3.78999e-06
-7.48427e-06
-2.10408e-06
2.05841e-06
1.54081e-05
-2.49482e-05
0.000154212
-4.17569e-05
0.000152383
-5.36386e-05
0.000136362
-6.23414e-05
0.000114374
-6.77228e-05
9.01046e-05
-6.8006e-05
5.99916e-05
-6.40697e-05
2.72602e-05
-6.6508e-05
1.42401e-05
-7.97879e-05
1.09055e-05
-8.68474e-05
8.47284e-06
-8.8611e-05
2.3386e-06
-8.81912e-05
-5.28e-06
-8.72955e-05
-1.10637e-05
-8.59014e-05
-1.68894e-05
-8.38819e-05
-2.26042e-05
-8.07916e-05
-2.77222e-05
-7.42216e-05
-3.21655e-05
-5.78337e-05
-3.42315e-05
-5.24415e-05
-3.292e-05
-6.36427e-05
-3.73009e-05
-6.22358e-05
-3.89398e-05
-5.85923e-05
-4.00103e-05
-5.46984e-05
-4.12207e-05
-5.08213e-05
-4.1689e-05
-4.7271e-05
-4.10116e-05
-4.41531e-05
-3.97878e-05
-4.12404e-05
-3.90083e-05
-3.83146e-05
-3.88543e-05
-3.52635e-05
-3.90315e-05
-3.18667e-05
-3.91908e-05
-2.20607e-05
-3.8408e-05
-1.64856e-05
-3.31397e-05
-1.39642e-05
-2.58926e-05
-1.19502e-05
-2.29096e-05
-1.18485e-05
-2.36802e-05
-9.40118e-06
-2.35735e-05
-7.33277e-06
-1.71544e-05
-5.48796e-06
-9.28897e-06
-2.50539e-06
-9.23024e-08
9.21262e-06
-2.22617e-05
0.000176474
-3.60815e-05
0.000166202
-4.52738e-05
0.000145545
-5.07041e-05
0.000119472
-4.93542e-05
7.62592e-05
-3.53641e-05
2.06765e-05
-2.2288e-05
2.03597e-06
-1.65417e-05
9.53039e-07
-1.52126e-05
7.33924e-07
-2.01963e-05
3.09574e-06
-5.12026e-05
1.21407e-06
-7.55428e-05
-2.10931e-06
-7.99026e-05
-1.07916e-05
-7.9182e-05
-1.7638e-05
-7.78563e-05
-2.38812e-05
-7.57309e-05
-2.98614e-05
-7.26947e-05
-3.5269e-05
-6.84147e-05
-3.84939e-05
-6.25984e-05
-4.00057e-05
-6.00671e-05
-3.8065e-05
-5.866e-05
-4.07242e-05
-5.56121e-05
-4.30966e-05
-5.19442e-05
-4.49039e-05
-4.82541e-05
-4.53902e-05
-4.50554e-05
-4.42088e-05
-4.24914e-05
-4.23415e-05
-4.014e-05
-4.13555e-05
-3.77256e-05
-4.12625e-05
-3.51569e-05
-4.15926e-05
-3.23724e-05
-4.19687e-05
-2.86613e-05
-4.21249e-05
-2.18928e-05
-4.14985e-05
-1.46377e-05
-3.7152e-05
-1.02189e-05
-2.65565e-05
-8.70472e-06
-2.47476e-05
-9.08242e-06
-1.96315e-05
-7.36089e-06
-1.88358e-05
-6.06972e-06
-1.05336e-05
-3.72608e-06
-1.88608e-06
7.89706e-06
-1.96228e-05
0.000196097
-2.95258e-05
0.000176105
-3.50642e-05
0.000151062
-3.42721e-05
0.000113425
-1.3503e-05
2.0606e-05
-9.98233e-06
5.24917e-06
-1.0223e-05
3.60671e-06
-8.08972e-06
1.22962e-06
-5.72796e-06
-1.229e-07
-5.58571e-06
1.17828e-06
-7.31824e-06
-1.95274e-09
-1.38035e-05
-5.27712e-08
-5.23529e-05
-2.75993e-06
-7.01186e-05
-1.20387e-05
-7.05916e-05
-2.33241e-05
-6.94504e-05
-3.0979e-05
-6.75608e-05
-3.7132e-05
-6.37641e-05
-4.10221e-05
-4.39877e-05
-3.48059e-05
-3.57802e-05
-2.37843e-05
-4.84503e-05
-2.66708e-05
-5.17893e-05
-4.22084e-05
-4.87561e-05
-4.79566e-05
-4.52955e-05
-4.87927e-05
-4.24065e-05
-4.70043e-05
-4.05412e-05
-4.41373e-05
-3.88212e-05
-4.30628e-05
-3.68387e-05
-4.32382e-05
-3.46664e-05
-4.37589e-05
-3.22838e-05
-4.4349e-05
-2.96259e-05
-4.47808e-05
-2.63959e-05
-4.47262e-05
-1.99115e-05
-4.37716e-05
-1.32449e-05
-4.00163e-05
-7.59194e-06
-2.64472e-05
-6.00482e-06
-1.48318e-05
-6.43617e-06
-1.10305e-05
-5.74418e-06
-1.1218e-05
-4.38566e-06
-3.23595e-06
3.63823e-06
7.69482e-06
-1.72601e-05
-1.25986e-05
1.39573e-05
9.04001e-06
-2.10573e-05
-1.70552e-05
1.34973e-05
8.08749e-06
-2.42313e-05
-1.98881e-05
1.09383e-05
5.43769e-06
-2.62358e-05
-1.3122e-05
5.30172e-06
1.24787e-06
-1.4293e-05
-2.24221e-11
6.75433e-07
-1.30583e-12
-2.19844e-11
-3.72825e-11
1.08377e-11
5.30066e-13
-2.85441e-11
-6.52989e-11
2.4599e-11
1.96427e-12
-5.05323e-11
-9.86915e-11
3.43469e-11
9.25127e-12
-7.28989e-11
-2.37788e-10
7.41198e-11
-9.40591e-13
-4.0973e-10
7.57016e-11
-6.8973e-10
1.6722e-10
-1.18845e-09
2.06297e-10
-2.8636e-09
-7.64134e-11
-3.94994e-09
-3.43761e-09
-5.4747e-09
-6.2354e-09
-1.08784e-08
-9.1718e-09
-3.5228e-08
-1.14727e-08
-2.18725e-07
-1.62093e-08
-1.71556e-06
-3.24713e-08
-3.242e-06
-2.11411e-07
-6.19168e-06
-2.19126e-06
-6.93405e-06
-8.84594e-06
-4.87786e-06
-1.00911e-05
-1.44355e-06
-1.07749e-05
-3.96924e-08
-1.49871e-06
-4.54259e-10
-4.13026e-08
2.70615e-13
-4.60579e-10
5.51248e-14
4.22205e-13
9.00027e-15
7.32117e-14
5.58469e-15
6.20122e-15
3.34327e-16
4.20528e-16
-3.53603e-15
-4.28587e-15
-7.66477e-15
2.17156e-05
-7.75837e-06
2.50874e-05
-3.3718e-06
2.20857e-05
3.00172e-06
3.84522e-05
-1.63665e-05
1.7473e-05
-1.17334e-05
1.77934e-05
-3.69221e-06
8.10555e-06
1.26896e-05
6.02247e-05
-1.3667e-05
1.26608e-05
-1.29809e-05
1.04666e-05
-1.23791e-06
1.07681e-06
2.21814e-05
7.35224e-05
-1.2221e-05
3.44993e-06
-6.55375e-07
2.31101e-06
2.05479e-07
-2.67977e-06
2.60437e-05
8.19759e-05
-1.11337e-05
2.0068e-08
-1.06962e-11
1.96414e-07
2.24276e-08
-5.68416e-06
2.05651e-05
8.68251e-05
-1.05342e-05
2.47002e-11
-2.85644e-11
1.89277e-08
3.52216e-09
-7.77828e-06
7.93191e-06
8.95422e-05
-1.04987e-05
3.65149e-11
-4.28764e-11
2.8108e-09
7.46966e-10
-8.31175e-06
6.4987e-06
9.16304e-05
-1.0408e-05
5.19522e-11
-6.15119e-11
5.82439e-10
2.35365e-10
-8.33099e-06
8.78217e-06
9.28669e-05
-9.54352e-06
4.96591e-10
-4.81418e-10
-8.99513e-08
9.34282e-08
-8.02036e-06
1.05184e-05
9.29765e-05
-8.14679e-06
3.01878e-10
-8.51797e-10
-6.84109e-08
1.60049e-07
-7.07299e-06
1.1264e-05
9.25494e-05
-6.66511e-06
1.76966e-09
-2.08366e-09
3.21438e-08
1.29013e-07
-5.58822e-06
1.05786e-05
9.22054e-05
-5.25653e-06
1.06607e-09
-3.14392e-09
6.83561e-08
4.68715e-08
-2.7274e-06
6.89865e-06
8.9545e-05
-3.47429e-06
4.11095e-09
-7.34534e-09
4.96095e-09
1.2557e-08
3.37031e-08
1.7302e-06
5.24608e-05
-3.47808e-07
-5.90074e-09
-7.04094e-09
-6.80848e-11
-1.06418e-09
7.79854e-07
2.11614e-07
5.92417e-06
3.0578e-06
-9.33645e-09
-7.91392e-09
-1.00294e-08
-8.45148e-09
2.00153e-07
2.80348e-08
2.34287e-06
3.58381e-06
-1.17591e-08
-9.15284e-09
-1.09032e-08
-1.36479e-08
2.29723e-08
-4.97864e-09
2.50296e-07
2.07378e-06
-1.49667e-08
-1.00718e-08
-1.64476e-08
-1.60007e-08
-3.4839e-09
-1.98581e-08
5.86673e-08
4.88206e-08
-1.73913e-08
-1.26245e-08
-2.07356e-08
-1.50665e-08
-2.38351e-08
-1.93565e-08
-1.19764e-08
8.06092e-09
-1.80624e-08
-2.97501e-08
-2.3974e-08
-1.30738e-08
-3.11399e-08
-1.52114e-08
-1.63567e-08
-4.13914e-08
-2.37158e-08
-2.19601e-07
-2.14236e-08
-2.02953e-08
-2.80336e-08
-1.07653e-08
-7.44241e-09
-4.36663e-08
-8.5274e-08
-2.32306e-06
-2.3511e-08
-8.53683e-08
-2.1192e-08
-1.23694e-08
-1.33385e-08
-2.63489e-08
-1.31184e-06
-4.29281e-06
-7.85581e-08
-1.31534e-06
-6.20337e-08
-2.15036e-08
-3.56468e-09
-4.79005e-08
-7.56418e-06
-5.19449e-06
-8.04963e-07
-2.79973e-06
-6.26257e-08
-7.52337e-07
-2.64448e-09
-5.54677e-08
-1.13172e-05
-2.58596e-06
-8.023e-06
-3.87639e-06
-3.80566e-07
-1.70643e-06
-3.26863e-07
-4.71246e-08
-9.46851e-06
-8.27362e-07
-9.6385e-06
-1.443e-06
-8.52356e-06
-2.16975e-06
-6.81503e-07
-2.09413e-08
-8.5081e-07
-2.20183e-08
-6.11268e-06
-2.55301e-07
-9.67242e-06
-1.06642e-06
-6.42908e-07
-8.32119e-06
-2.27568e-08
-1.89534e-11
-2.75456e-07
-3.12001e-09
-2.15294e-06
-4.53833e-08
-3.76287e-07
-7.91336e-06
-1.7043e-11
-1.23654e-13
-3.11564e-09
-3.98996e-13
-4.83353e-08
-1.85183e-10
-5.71504e-09
-4.19247e-07
8.04166e-14
-7.27131e-16
4.74549e-14
1.65281e-14
-1.83104e-10
-8.0781e-14
-2.2639e-12
-5.87197e-09
9.92591e-15
1.17023e-15
4.54398e-14
2.18675e-15
9.10768e-14
5.48341e-16
6.65987e-15
-3.05445e-13
7.48236e-16
8.42524e-16
3.76991e-15
1.04576e-15
1.2971e-14
5.28587e-16
1.05688e-15
8.9977e-14
-5.82004e-16
-4.47825e-16
2.68681e-16
1.95072e-16
8.96836e-16
7.6758e-16
6.79202e-16
6.9363e-15
-3.67524e-15
-1.01949e-15
-2.55121e-17
4.42941e-16
-1.86563e-05
0.000198387
-2.3327e-05
0.000180766
-2.61405e-05
0.000153559
-1.08573e-05
8.78376e-05
-4.32145e-06
7.60511e-06
-2.80096e-06
4.01149e-06
-2.7896e-06
3.42424e-06
-2.4702e-06
1.35926e-06
-3.98979e-06
2.48074e-06
-7.81723e-06
3.77407e-06
-2.21885e-06
2.77757e-06
-3.16439e-06
5.05689e-07
-6.40029e-06
-2.35926e-08
-3.50677e-05
-2.27101e-06
-6.11321e-05
-1.27659e-05
-6.2931e-05
-2.92303e-05
-6.18544e-05
-3.76426e-05
-5.64811e-05
-4.19414e-05
-3.0139e-05
-3.48505e-05
-2.715e-05
-2.56218e-05
-2.91341e-05
-2.34819e-05
-4.3786e-05
-3.21155e-05
-4.4705e-05
-4.71101e-05
-4.15407e-05
-5.16285e-05
-3.85341e-05
-4.29051e-05
-3.84003e-05
-3.67578e-05
-3.76791e-05
-4.37092e-05
-3.61879e-05
-4.47201e-05
-3.43573e-05
-4.55831e-05
-3.23171e-05
-4.6386e-05
-3.0013e-05
-4.70814e-05
-2.7447e-05
-4.72885e-05
-2.45193e-05
-4.6697e-05
-1.92572e-05
-4.52927e-05
-1.1976e-05
-4.17783e-05
-5.55012e-06
-2.75216e-05
-3.89117e-06
-1.04685e-05
-4.33973e-06
-5.72896e-06
-3.8819e-06
-3.69143e-06
-2.43672e-07
-1.55594e-05
0.000200279
-1.66688e-05
0.000181887
-1.69193e-05
0.000151984
-4.72256e-06
3.32844e-05
-2.13289e-06
4.09283e-06
-1.21778e-06
2.95265e-06
-8.54463e-07
2.64343e-06
-8.62841e-07
1.14295e-06
-2.715e-06
7.85428e-07
-3.48822e-06
2.20719e-06
-3.98719e-06
2.71951e-06
-8.70928e-07
3.63625e-06
-1.50251e-06
2.47256e-07
-3.8318e-06
-4.13451e-08
-2.57045e-05
-2.37009e-06
-5.28549e-05
-1.6676e-05
-5.42485e-05
-3.51351e-05
-5.17468e-05
-4.36258e-05
-3.56773e-05
-4.49226e-05
-2.39781e-05
-3.31775e-05
-2.15978e-05
-2.37226e-05
-2.68259e-05
-2.7989e-05
-3.84964e-05
-4.49812e-05
-2.7448e-05
-4.97405e-05
-1.7368e-05
-1.51671e-05
-2.25427e-05
-1.00848e-05
-3.35659e-05
-2.4981e-05
-3.42772e-05
-4.39273e-05
-3.31238e-05
-4.67254e-05
-3.15493e-05
-4.79567e-05
-2.9686e-05
-4.89413e-05
-2.75821e-05
-4.93857e-05
-2.53059e-05
-4.8959e-05
-2.25686e-05
-4.80158e-05
-1.80991e-05
-4.62525e-05
-8.88878e-06
-4.21281e-05
-2.80319e-06
-2.2641e-05
-1.48683e-06
-5.70993e-06
-2.29276e-06
-1.99163e-06
-2.53643e-06
-1.04996e-05
0.000198556
-9.9827e-06
0.000181442
-5.83938e-06
0.000143393
-1.77674e-06
7.77333e-06
-1.41886e-06
3.08026e-06
-1.61596e-06
3.5573e-06
-5.84798e-07
4.35344e-06
-4.24765e-07
7.5715e-07
-4.07858e-07
5.04331e-07
-2.79044e-06
3.14212e-07
-3.66222e-06
2.69986e-06
-1.86266e-06
3.12632e-06
-2.89706e-07
1.85047e-06
-3.94974e-07
8.63402e-08
-2.69316e-06
-1.84642e-07
-2.78511e-05
-3.63603e-06
-4.71957e-05
-2.85855e-05
-4.71648e-05
-4.19709e-05
-4.28202e-05
-4.70293e-05
-2.99348e-05
-4.60615e-05
-2.53605e-05
-2.76179e-05
-1.78668e-05
-2.7438e-05
-2.6224e-05
-3.29521e-05
-1.03486e-05
-3.18944e-05
-6.86281e-06
-8.86926e-06
-9.5931e-06
-8.07658e-06
-1.64855e-05
-9.43189e-06
-2.95744e-05
-2.27321e-05
-3.08507e-05
-4.53921e-05
-3.00736e-05
-4.87238e-05
-2.87987e-05
-5.021e-05
-2.72945e-05
-5.0876e-05
-2.57628e-05
-5.04766e-05
-2.38585e-05
-4.99101e-05
-2.10813e-05
-4.90204e-05
-1.64063e-05
-4.67939e-05
-3.5216e-06
-3.67205e-05
-3.84862e-07
-7.46934e-06
3.66851e-07
-8.82681e-07
-1.3046e-06
-5.94846e-06
0.000193369
-4.34626e-06
0.000179799
-1.7781e-06
0.000128942
-6.32582e-07
6.09802e-06
-4.26713e-07
2.62777e-06
-1.26309e-06
2.8738e-06
-3.16494e-07
4.91481e-06
-1.7245e-07
2.12166e-06
-1.85968e-07
3.2454e-07
-2.5872e-07
2.66989e-07
-1.93122e-06
1.42063e-07
-1.7301e-06
3.44494e-06
-2.53727e-07
2.80414e-06
-1.8686e-07
4.72478e-08
-3.91191e-07
1.52652e-08
-3.71627e-06
-5.3733e-07
-3.58747e-05
-8.43343e-06
-4.14382e-05
-3.40908e-05
-3.99537e-05
-4.71782e-05
-3.59995e-05
-4.92745e-05
-2.42615e-05
-3.51278e-05
-1.87946e-05
-2.05456e-05
-1.36707e-05
-2.20265e-05
-6.06697e-06
-1.61261e-05
-5.38418e-06
-1.02808e-05
-5.19932e-06
-8.99024e-06
-6.8588e-06
-8.3804e-06
-1.44988e-05
-9.35707e-06
-2.63264e-05
-2.56458e-05
-2.75743e-05
-4.73782e-05
-2.71438e-05
-5.06185e-05
-2.64553e-05
-5.15131e-05
-2.59984e-05
-5.09077e-05
-2.51539e-05
-5.07464e-05
-2.345e-05
-5.07097e-05
-2.03933e-05
-4.98155e-05
-9.49555e-06
-4.59979e-05
-5.88851e-07
-1.53823e-05
5.95399e-07
-2.19027e-06
1.05583e-07
-2.57896e-06
0.000185406
2.43482e-07
0.000177079
-4.80794e-08
0.00011659
-1.10125e-07
6.60831e-06
-8.9076e-08
2.44727e-06
-3.41031e-07
1.69118e-06
-2.01648e-07
4.83185e-06
-1.34244e-08
2.96753e-06
1.15223e-09
2.38929e-06
-3.17474e-08
2.03373e-07
-6.48895e-07
2.23001e-07
-1.17377e-06
1.08158e-06
-6.47128e-08
4.03965e-07
-3.57073e-08
3.30526e-08
-2.61487e-08
1.0411e-08
-4.97773e-07
-8.48328e-08
-9.64022e-06
-1.4119e-06
-3.34674e-05
-2.29069e-05
-3.40051e-05
-4.58637e-05
-3.2208e-05
-5.06089e-05
-2.4059e-05
-3.51163e-05
-1.51547e-05
-1.77339e-05
-9.77449e-06
-1.05551e-05
-6.77145e-06
-1.56807e-05
-4.98793e-06
-1.24981e-05
-4.15071e-06
-1.05623e-05
-3.86968e-06
-9.54082e-06
-5.90182e-06
-8.30844e-06
-1.64318e-05
-9.96123e-06
-2.36872e-05
-3.55773e-05
-2.42915e-05
-4.99916e-05
-2.46223e-05
-5.09104e-05
-2.60185e-05
-4.94602e-05
-2.64421e-05
-5.03097e-05
-2.58807e-05
-5.12369e-05
-2.39858e-05
-5.16199e-05
-1.97842e-05
-4.99374e-05
-2.71295e-06
-3.15606e-05
2.57687e-08
-5.06537e-06
2.45185e-09
2.38116e-07
0.00017467
4.07343e-06
0.000173244
1.45682e-06
0.000119873
1.30551e-07
9.28494e-06
5.12562e-08
2.40056e-06
1.69849e-07
1.5495e-06
3.0721e-07
1.44976e-06
1.89495e-06
6.65652e-06
1.35453e-06
9.53589e-06
2.04642e-07
2.22027e-06
5.41743e-08
2.32414e-07
-5.01649e-08
1.51211e-08
-3.27719e-08
-2.41276e-08
-1.46447e-08
6.4656e-08
-7.79884e-09
2.11056e-09
-8.84004e-08
-4.89565e-09
-1.21798e-06
-2.9868e-07
-2.13538e-05
-5.09617e-06
-2.83254e-05
-4.18923e-05
-2.72119e-05
-5.21608e-05
-1.91004e-05
-4.42179e-05
-1.42018e-05
-1.60186e-05
-1.01526e-05
-9.74601e-06
-9.72141e-06
-2.45848e-05
-5.53433e-06
-3.85352e-05
-3.89368e-06
-1.32818e-05
-2.80196e-06
-1.15493e-05
-2.6468e-06
-9.59579e-06
-6.09577e-06
-7.76056e-06
-1.63007e-05
-1.60645e-05
-1.64012e-05
-4.87721e-05
-1.88219e-05
-2.5416e-05
-2.57763e-05
-3.32284e-05
-2.76628e-05
-4.83715e-05
-2.8186e-05
-5.06234e-05
-2.77892e-05
-5.18412e-05
-2.51937e-05
-5.20887e-05
-9.93494e-06
-4.63986e-05
-1.36967e-06
-1.51923e-05
-1.81647e-07
2.27209e-06
0.000161991
7.65198e-06
0.000167863
3.56284e-06
0.000129724
3.14115e-07
1.29579e-05
2.01662e-07
2.44344e-06
2.62474e-07
1.42555e-06
7.5034e-07
9.13025e-07
6.91249e-06
4.98774e-06
5.10045e-06
1.04799e-05
9.52637e-08
5.4511e-06
3.14129e-08
2.47814e-07
1.6885e-08
4.76229e-08
-2.74251e-09
7.59382e-09
-8.45103e-10
7.95519e-08
-1.52434e-09
9.69076e-10
-5.20278e-09
5.15221e-10
-2.26965e-07
-8.0139e-08
-4.8263e-06
-1.24442e-06
-2.47163e-05
-3.09608e-05
-2.32563e-05
-5.34737e-05
-1.80299e-05
-5.59146e-05
-1.147e-05
-2.89937e-05
-8.29365e-06
-1.10644e-05
-1.32424e-05
-3.3886e-05
-8.68914e-06
-4.37855e-05
-6.68015e-06
-4.22904e-05
-2.73191e-06
-3.03048e-05
-1.5144e-06
-1.21051e-05
-2.00273e-06
-8.34243e-06
-8.58349e-06
-8.00249e-06
-3.63174e-06
-3.73828e-05
-3.4493e-06
-1.22188e-06
-2.18142e-05
-6.58867e-06
-2.83383e-05
-4.02368e-05
-2.95496e-05
-4.9055e-05
-3.03192e-05
-5.06348e-05
-3.07078e-05
-5.09458e-05
-2.32103e-05
-5.20485e-05
-5.03715e-06
-3.6251e-05
-1.30542e-06
3.55113e-06
0.000148895
1.07404e-05
0.000160673
6.28096e-06
0.000132978
7.68206e-07
1.89365e-05
3.98499e-07
2.74065e-06
3.75834e-07
1.38422e-06
4.84856e-07
7.55495e-07
5.98852e-06
6.11529e-06
7.3027e-06
1.06133e-05
1.08029e-06
4.97269e-06
2.84052e-08
3.1302e-07
6.41783e-09
7.06948e-08
1.83464e-09
8.71879e-09
-5.10122e-10
3.44898e-09
1.25965e-11
4.64835e-10
2.64865e-10
4.54815e-10
-6.0882e-08
-1.92616e-08
-1.06285e-06
-4.88782e-07
-1.92354e-05
-2.08271e-05
-1.94482e-05
-5.29373e-05
-1.61313e-05
-5.85687e-05
-1.20142e-05
-5.44987e-05
-6.42725e-06
-2.15092e-05
-1.06695e-05
-3.03912e-05
-9.1714e-06
-4.52988e-05
-7.27852e-06
-4.44263e-05
-4.32178e-06
-4.14229e-05
-1.25457e-06
-3.39945e-05
-5.01722e-07
-1.00036e-05
-1.51927e-06
-8.36205e-06
-1.73482e-07
-1.77225e-05
-8.95796e-07
-4.07656e-07
-5.50597e-06
-5.48208e-07
-2.0862e-05
-8.12987e-06
-2.43654e-05
-2.27499e-05
-2.70821e-05
-2.48598e-05
-3.1793e-05
-2.74273e-05
-3.18581e-05
-4.46106e-05
-1.08291e-05
-5.7892e-05
-3.15262e-05
4.13671e-06
0.000136611
1.30164e-05
0.000151793
9.38296e-06
0.00013443
1.1498e-06
2.64584e-05
6.0744e-07
3.16025e-06
5.50864e-07
1.39152e-06
5.16447e-07
7.4734e-07
8.24176e-06
1.09113e-05
8.05538e-06
1.28548e-05
9.48168e-07
3.68483e-06
-2.71938e-09
2.44252e-07
4.56969e-09
5.73061e-08
3.17772e-10
7.11788e-09
7.29603e-11
2.89027e-10
1.24593e-11
7.56065e-11
7.02795e-10
6.13207e-11
-1.59214e-08
-2.03151e-09
-3.2448e-07
-1.79008e-07
-1.27096e-05
-9.12177e-06
-1.52805e-05
-4.97498e-05
-1.44971e-05
-5.873e-05
-9.23334e-06
-5.91005e-05
-6.4579e-06
-3.80985e-05
-8.01148e-06
-3.66167e-05
-6.90564e-06
-4.63829e-05
-5.6617e-06
-4.57255e-05
-4.17854e-06
-4.28556e-05
-1.38213e-06
-3.71685e-05
-1.77e-07
-2.37594e-05
1.17552e-07
-1.57892e-05
4.49264e-08
-3.54225e-06
-1.16442e-07
-2.35665e-07
-2.08546e-07
-2.43168e-07
-2.98329e-06
-7.91913e-09
-4.147e-06
-3.33383e-08
-5.15421e-06
-2.13303e-07
-7.13e-06
-1.11569e-06
-1.82527e-05
-5.68949e-06
-2.02756e-05
-3.70758e-05
-5.18017e-05
3.92596e-06
0.000126015
1.39594e-05
0.000141756
1.42674e-05
0.000134754
1.52584e-06
3.93469e-05
9.32315e-07
3.87609e-06
7.37614e-07
1.54325e-06
6.1862e-07
8.22071e-07
1.16755e-05
2.05849e-05
9.37172e-06
1.17673e-05
1.31742e-07
2.06364e-06
-1.30781e-08
2.53079e-07
-1.68916e-09
4.24827e-08
-1.18965e-11
3.85083e-09
-1.32378e-11
2.33681e-10
6.36836e-12
2.36245e-11
9.38245e-11
-1.89311e-12
-1.73007e-09
-3.89641e-11
-1.6081e-07
-1.64269e-08
-5.40746e-06
-1.02381e-06
-1.06586e-05
-3.69375e-05
-1.02467e-05
-5.84729e-05
-9.04583e-06
-5.73001e-05
-7.59306e-06
-4.81024e-05
-5.73371e-06
-4.15226e-05
-4.99028e-06
-4.70779e-05
-4.18976e-06
-4.63467e-05
-3.12967e-06
-4.38427e-05
-2.5057e-06
-3.7185e-05
-1.19272e-06
-3.06171e-05
8.36831e-08
-2.04553e-05
-2.17699e-08
-1.02288e-07
-8.98326e-08
-1.95523e-07
-6.99609e-09
-1.77931e-07
-2.36359e-09
-1.33042e-09
-2.66279e-08
-2.39257e-09
-2.02439e-07
-1.38326e-08
-1.14889e-06
-6.25928e-08
-6.08544e-06
-3.14e-07
-1.27762e-05
-2.30875e-06
-2.06119e-05
3.01443e-06
0.000117744
1.31933e-05
0.000131578
1.76153e-05
0.000130336
2.23493e-06
5.33456e-05
1.25344e-06
5.00139e-06
9.77815e-07
1.8659e-06
5.40293e-06
5.57854e-06
1.56133e-05
2.8772e-05
5.86281e-06
1.11994e-05
-1.05088e-07
7.59409e-07
-2.08382e-08
1.36826e-07
-1.86614e-09
2.09676e-08
-8.86204e-11
1.99658e-09
-3.92857e-12
1.38779e-10
1.57286e-12
1.06504e-11
4.03576e-12
7.05271e-13
-3.52532e-11
-1.90067e-13
-1.62964e-08
-4.14912e-11
-3.03329e-07
-3.40179e-08
-5.99159e-06
-1.27522e-05
-5.62293e-06
-5.80153e-05
-3.78554e-06
-4.27155e-05
-4.06284e-06
-1.76012e-05
-3.69595e-06
-4.10586e-05
-3.76257e-06
-4.73607e-05
-3.17547e-06
-4.53912e-05
-2.00127e-06
-3.46897e-05
-1.80244e-06
-3.38805e-08
-1.47761e-06
-1.32373e-06
-1.60244e-07
-1.2116e-10
-1.82673e-08
-9.04147e-10
-7.04495e-08
-2.58098e-08
-1.11699e-08
-6.3399e-08
-1.30264e-09
-1.88711e-10
-2.71853e-09
-4.99706e-11
-1.27395e-08
-6.09229e-10
-5.45442e-08
-6.63726e-09
-2.18966e-07
-6.54617e-08
-1.59295e-06
-5.60158e-07
-1.65036e-06
2.32695e-06
0.000111913
1.16357e-05
0.000122269
1.82484e-05
0.000123724
4.10123e-06
7.39958e-05
1.93733e-06
9.50019e-06
1.22351e-06
2.70431e-06
1.68995e-05
3.36738e-05
1.41322e-05
2.82958e-05
2.28641e-06
7.8627e-06
-3.64754e-08
5.33743e-07
-9.11629e-09
8.88972e-08
-1.05782e-09
1.21175e-08
-7.06335e-11
1.05319e-09
-4.84415e-12
7.30583e-11
2.13994e-13
4.80193e-12
4.3847e-13
1.77585e-13
1.90054e-13
-1.77224e-14
-5.8745e-11
-9.27249e-14
-3.41314e-08
-9.46326e-15
-1.89058e-06
-4.91768e-06
-2.36846e-06
-5.63979e-05
-8.97236e-07
-4.27196e-05
-1.52717e-06
-1.25709e-05
-1.91704e-06
-1.8999e-05
-2.60149e-06
-3.25642e-05
-1.87935e-06
-3.10409e-05
-1.43265e-09
-1.44432e-06
-3.53147e-08
-3.35903e-13
-3.52849e-12
-8.32351e-13
-1.13076e-10
-1.37425e-11
-8.71644e-10
-1.01343e-10
-1.82953e-08
-8.74046e-10
-4.20269e-09
-2.01722e-09
-5.40654e-10
8.63131e-10
-5.73342e-10
2.76236e-11
-1.24901e-09
-4.38917e-11
-6.19167e-09
-1.65671e-09
-1.81886e-08
-1.78848e-08
-1.66183e-07
-2.6379e-07
-1.38449e-06
3.57091e-06
0.000107687
1.16523e-05
0.000114187
1.94852e-05
0.000115888
1.14808e-05
0.000102736
5.61631e-06
4.62917e-05
1.23804e-05
4.04361e-05
2.59584e-05
4.20111e-05
1.80192e-05
2.72516e-05
1.33136e-07
4.32229e-06
-1.58571e-08
5.27912e-07
-4.86162e-09
6.83136e-08
-6.59661e-10
7.66009e-09
-4.553e-11
6.07799e-10
-3.12948e-12
4.12444e-11
7.35241e-14
2.36485e-12
3.13559e-14
1.08609e-13
9.13283e-14
1.07949e-14
2.28604e-15
-3.72495e-15
1.21982e-14
-1.65317e-14
8.76244e-07
-2.36805e-06
1.35347e-06
-5.2882e-05
4.27331e-07
-5.33254e-05
-4.65574e-09
-7.8941e-06
-1.20921e-07
-2.51136e-06
-3.35234e-07
-6.29909e-07
-2.86969e-08
-2.06713e-08
-2.09521e-14
-9.9334e-10
-3.53028e-14
-1.19096e-12
-9.95253e-13
-9.22223e-13
-1.27964e-12
-1.42688e-11
-1.87326e-11
-8.56783e-11
-1.23668e-10
-8.51783e-10
-3.2659e-09
-1.9122e-10
-1.71209e-10
2.24037e-09
-1.53264e-10
9.66667e-12
-2.28053e-10
-8.57691e-12
-1.54838e-09
-4.58093e-10
-2.03339e-08
-7.95776e-09
-1.27774e-07
-1.54725e-07
-9.09093e-07
7.89374e-06
0.000101029
1.44852e-05
0.000107591
2.2618e-05
0.000107658
2.70973e-05
9.80831e-05
2.67777e-05
8.06891e-05
2.94697e-05
5.98289e-05
2.91719e-05
4.58054e-05
1.06246e-05
2.05942e-05
-1.86719e-07
1.41107e-06
-2.45906e-08
2.78829e-07
-4.36354e-09
4.13251e-08
-4.72184e-10
4.40503e-09
-2.50763e-11
3.69391e-10
-1.1644e-12
2.33785e-11
-4.26741e-14
1.27066e-12
-4.95718e-15
5.44321e-14
5.3428e-15
4.46052e-16
1.84662e-15
-1.20519e-15
6.82731e-14
-8.45502e-14
2.0056e-06
-2.99439e-07
4.67235e-06
-4.57343e-05
4.65702e-06
-5.22543e-05
5.26603e-08
-2.51969e-05
1.20281e-07
-1.86567e-06
1.08967e-10
-2.62781e-07
-4.73737e-12
-2.07849e-08
-1.97535e-13
-9.67876e-10
-1.10036e-13
-3.60734e-12
-1.05525e-12
-3.23177e-13
-7.31855e-12
-8.39101e-12
-6.77229e-11
-5.69327e-11
-4.19319e-09
-4.96033e-10
-3.82966e-09
1.01674e-09
-2.78392e-11
1.17805e-09
-1.95022e-11
1.2728e-12
-2.81254e-11
-1.69566e-12
-4.13347e-10
-9.74748e-11
-1.02726e-08
-3.81283e-09
-1.19365e-07
-2.44933e-07
-1.03213e-06
1.28095e-05
6.4066e-05
1.95082e-05
0.000100806
2.6515e-05
0.000100541
3.2359e-05
9.20694e-05
3.50015e-05
7.83594e-05
3.56821e-05
6.21892e-05
2.4056e-05
3.85346e-05
1.24103e-06
5.44083e-06
-1.27991e-07
7.13899e-07
-2.35503e-08
1.26583e-07
-3.11049e-09
1.8691e-08
-2.44557e-10
2.22625e-09
-1.28897e-11
2.03994e-10
-5.09252e-13
1.23174e-11
-1.21297e-14
6.81962e-13
3.02374e-15
3.1002e-14
2.41214e-15
4.64563e-16
1.80902e-15
-9.16487e-16
3.28393e-13
-4.11888e-13
1.7303e-06
-1.87372e-09
7.04601e-06
-3.69877e-05