/*--------------------------------*- C++ -*----------------------------------*\
| =========                 |                                                 |
| \\      /  F ield         | OpenFOAM: The Open Source CFD Toolbox           |
|  \\    /   O peration     | Version:  5.0                                   |
|   \\  /    A nd           | Web:      www.OpenFOAM.org                      |
|    \\/     M anipulation  |                                                 |
\*---------------------------------------------------------------------------*/
FoamFile
{
    version     2.0;
    format      ascii;
    class       volScalarField;
    location    "0.85";
    object      alpha.water;
}
// * * * * * * * * * * * * * * * * * * * * * * * * * * * * * * * * * * * * * //

dimensions      [0 0 0 0 0 0 0];

internalField   nonuniform List<scalar> 
1915
(
0.999886
0.999996
1
1
1
1
1
1
1
1
1
1
1
1
1
1
1
1
1
1
0.862618
0.929885
1
1
1
1
1
1
1
1
0.999999
1
1
1
1
1
1
1
1
1
1
1
1
1
1
1
1
1
1
1
1
0.999946
0.999846
0.999684
0.999546
1
1
0.999787
1
0.987574
1
0.986443
1
1
1
1
1
0.999976
0.99942
0.998605
0.998539
0.999021
0.999987
0.999985
0.999986
1.00002
1.00001
1.00001
1.00001
1
1
1
1
1
1
0.999999
1
1
1
1
0.999998
0.999997
0.999996
0.999458
0.997364
0.99351
0.998772
0.99999
0.999997
0.963477
0.99044
0.999991
0.999996
1
0.999998
0.99999
0.999967
0.999837
0.999601
0.999108
0.978464
0.938669
0.93036
0.924769
0.939223
0.979129
0.995318
0.999889
0.999933
0.999971
1
1
1
1
0.999996
0.999977
0.999968
0.999999
0.999999
0.999998
0.999997
0.999996
0.999985
0.999979
0.998863
0.977492
0.961542
0.992265
0.999995
0.944889
0.989162
0.999995
0.999994
0.999996
0.999991
0.999968
0.999891
0.999638
0.998883
0.997009
0.990965
0.908235
0.694646
0.663384
0.657741
0.654944
0.787096
0.889499
0.930473
0.977549
0.999788
0.999932
0.999954
0.999999
0.999997
0.999976
0.999685
0.999515
0.999693
0.999977
0.999983
0.999988
0.99998
0.999953
0.999921
0.988633
0.933133
0.933501
0.999855
0.980315
0.99638
0.999994
0.999996
0.999995
0.99999
0.999968
0.999885
0.999618
0.998976
0.997822
0.994654
0.922208
0.716489
0.659318
0.657802
0.65625
0.657802
0.657917
0.657723
0.679749
0.922997
0.975794
0.998815
0.999997
0.999995
0.999988
0.999959
0.998239
0.995203
0.994896
0.999788
0.999882
0.999911
0.999924
0.99967
0.999593
0.977404
0.896902
0.983684
1
1.00002
0.999997
0.999996
0.999996
0.999992
0.999971
0.999935
0.999834
0.999602
0.999059
0.996315
0.990296
0.981129
0.85605
0.693668
0.657802
0.658215
0.659775
0.660908
0.662077
0.659132
0.864997
0.999988
0.999995
0.999988
0.999978
0.999956
0.999871
0.994859
0.970593
0.964094
0.994981
0.998162
0.999642
0.999593
0.999214
0.998682
0.89468
0.836319
1
1
0.999998
0.999996
0.999996
0.999994
0.999974
0.999959
0.999905
0.999773
0.999424
0.996305
0.994043
0.988725
0.988517
0.984911
0.900551
0.702019
0.661464
0.662456
0.66149
0.84431
0.983693
0.997896
0.999988
0.999979
0.999952
0.999912
0.999858
0.99964
0.988396
0.858664
0.790722
0.834195
0.963204
0.999017
0.999056
0.997998
0.965393
0.835578
1
1
0.999997
1.00001
1.00001
1.00001
0.995323
0.865482
0.798568
0.847679
0.951671
0.981644
0.988191
0.988517
0.986777
0.985855
0.984225
0.979615
0.835839
0.695251
0.892202
0.998657
0.999474
0.999719
0.999946
0.999934
0.999915
0.999848
0.999766
0.999658
0.999166
0.935275
0.671253
0.670258
0.675178
0.907824
0.998395
0.997402
0.996913
0.915008
0.653259
1
0.999994
0.999911
0.99924
0.987777
0.701353
0.358344
0.220291
0.196784
0.190984
0.477299
0.843871
0.969278
0.985862
0.984045
0.981869
0.980094
0.97669
0.968321
0.940042
0.985059
0.998667
0.999492
0.999722
0.99967
0.999721
0.999767
0.999654
0.999554
0.999482
0.999321
0.953276
0.687192
0.605809
0.602663
0.866391
0.996916
0.997538
0.977574
0.812463
1
1.00005
0.999694
0.968154
0.578914
0.141634
0.138129
0.172741
0.0868469
0.0858319
0.069726
0.0609685
0.497003
0.899109
0.981858
0.98012
0.976807
0.966594
0.749121
0.578368
0.718904
0.977608
0.998612
0.998682
0.998138
0.998444
0.999352
0.999562
0.999482
0.999414
0.999378
0.999275
0.998728
0.765751
0.526679
0.502802
0.811204
0.999578
0.999688
0.999242
0.999999
1
0.999993
0.999978
0.999892
0.999585
0.998787
0.902208
0.830744
0.211109
0.159361
6.34402e-07
6.59109e-07
6.40737e-07
6.69325e-07
6.89067e-07
7.09735e-07
2.23615e-06
9.03107e-07
5.37031e-06
4.19035e-06
7.07045e-06
1.42969e-05
3.03432e-05
5.51064e-05
7.17441e-05
8.42036e-05
0.000130055
0.000206043
0.0778995
0.295732
0.33927
0.34407
0.202379
0.00042944
3.88272e-06
8.09253e-08
4.77247e-09
2.79669e-10
6.59832e-12
8.99433e-28
-1.39723e-10
-2.30163e-10
1
1
1
1
0.999971
0.999992
0.999999
0.999997
0.995771
0.967219
0.998866
0.999992
0.525465
0.335601
0.959325
0.999983
6.21271e-07
4.63515e-05
0.818753
0.999977
6.37221e-07
6.34732e-07
0.427703
0.999986
6.34311e-07
6.69327e-07
0.125325
1
6.69883e-07
8.50583e-07
0.0992413
1.00019
7.23133e-07
-1.48069e-05
0.110787
1
1.32327e-05
1.05005e-05
0.12911
1
8.60842e-06
4.38442e-05
0.126285
0.999969
1.66275e-05
0.000243345
0.101073
0.996995
2.99838e-05
0.000242474
0.0449286
0.868766
5.47822e-05
0.00013761
0.00389896
0.306314
7.13775e-05
0.000105848
0.000271716
0.00186132
8.42879e-05
0.000106818
0.000238546
0.000837924
0.000108946
0.000129962
0.000255194
0.00216245
0.000135779
0.00016364
0.000237279
0.000709825
0.000165231
0.000222101
0.000261329
0.00033285
0.000222396
0.000265833
0.000282235
0.000273804
0.000429184
0.000281419
0.000274997
0.000273517
0.224438
0.000367185
0.000280727
0.000503268
0.350751
0.186357
0.000404183
0.000552923
0.352551
0.356948
0.185984
0.000589547
0.188267
0.357673
0.364218
0.268412
8.77104e-05
0.0857317
0.368754
0.377152
2.42665e-07
1.07934e-05
0.00887433
0.244578
7.2287e-09
-2.43752e-07
6.34679e-07
1.76174e-05
7.94743e-10
3.99824e-09
-1.04815e-08
1.66729e-07
5.4399e-11
2.24968e-10
1.04237e-09
8.81312e-09
-4.14768e-27
1.29449e-11
6.89254e-11
5.73342e-10
-2.02661e-11
0
4.66457e-13
3.68672e-11
-1.14436e-10
-3.34646e-11
-8.97369e-13
0
0.999997
1.00001
0.999481
0.908531
0.0777053
0.0402813
0.0335653
0.0700466
0.135255
0.181581
0.109971
0.0248525
0.016144
0.242299
0.80243
0.976015
0.969329
0.943261
0.630118
0.4522
0.434227
0.636761
0.993846
0.994144
0.957895
0.938421
0.996679
0.999148
0.999406
0.999376
0.999343
0.999311
0.999239
0.998848
0.875631
0.479089
0.378336
0.762281
0.999944
1
0.999992
1.00011
0.989438
0.625932
0.0330628
0.0336771
0.0254464
0.0173482
0.0618246
0.192457
0.207688
0.103919
0.0119168
0.00495549
0.14887
0.739224
0.958958
0.939833
0.824646
0.447185
0.418345
0.410203
0.829448
0.914434
0.451205
0.384711
0.80952
0.996276
0.999194
0.999336
0.999315
0.999244
0.999077
0.998942
0.998661
0.947579
0.364542
0.268706
0.901597
1
0.999987
0.999932
0.965836
0.159518
0.0251285
0.0384634
0.074919
0.0149872
0.0126262
0.0576179
0.212946
0.216078
0.026244
0.00164089
0.0049364
0.178747
0.812088
0.919857
0.91372
0.832711
0.402224
0.353784
0.532636
0.59801
0.159547
0.158111
0.223888
0.787164
0.997535
0.99915
0.99925
0.99912
0.998961
0.998728
0.998568
0.99815
0.882169
0.26008
0.258959
0.934889
0.999977
0.999936
0.900794
0.0267878
0.0206519
0.0501092
0.0873978
0.0144614
0.0123024
0.0119786
0.0898587
0.21953
0.196716
0.00107278
0.00135905
0.00650004
0.344631
0.914005
0.906445
0.899084
0.630916
0.314709
0.289248
0.26855
0.158111
0.158111
0.157578
0.202306
0.813271
0.997506
0.998984
0.998414
0.998517
0.998579
0.998275
0.997768
0.95431
0.25703
0.14761
0.416771
0.999946
0.999389
0.774807
0.0291125
0.0191984
0.0288049
0.087565
0.0886071
0.0144003
0.0119786
0.0147088
0.18837
0.12109
0.000798267
0.00031588
0.00138982
0.0386547
0.608714
0.899074
0.889897
0.647297
0.305579
0.204992
0.173145
0.159547
0.158108
0.159906
0.161404
0.245685
0.947573
0.99735
0.994609
0.997099
0.998285
0.99776
0.996705
0.992857
0.676752
0.147573
0.164454
0.9999
0.999906
0.729097
0.0426075
0.0179889
0.015883
0.0338238
0.167549
0.153605
0.0348247
0.0100904
0.0192315
0.00546348
0.00180997
8.75683e-05
0.000315567
0.00196228
0.184506
0.87403
0.892486
0.62839
0.319734
0.297403
0.384043
0.318441
0.162326
0.160959
0.164363
0.167
0.395673
0.987588
0.778507
0.862652
0.996884
0.99672
0.994364
0.988724
0.850757
0.171072
0.0962055
0.999913
0.999913
0.778541
0.066379
0.0163874
0.0163764
0.0159077
0.151404
0.38461
0.15976
0.0050368
0.00121947
0.000567305
0.0019444
5.13381e-05
9.71462e-05
0.000363261
0.0150083
0.567219
0.895415
0.859751
0.425621
0.344683
0.65986
0.689595
0.512111
0.269039
0.166927
0.167825
0.187172
0.810413
0.127276
0.281534
0.981082
0.992349
0.988886
0.976006
0.951531
0.64634
0.126261
0.999917
0.999915
0.83521
0.0882761
0.0161833
0.0160912
0.0159296
0.135999
0.401665
0.256854
0.0100867
0.000503713
0.000303265
0.00113781
2.01086e-05
3.28508e-05
0.000107925
0.00240351
0.377963
0.89959
0.905187
0.750154
0.428081
0.47327
0.686941
0.685895
0.684589
0.37612
0.168622
0.176828
0.402065
0.0082962
0.0160177
0.460104
0.78003
0.778325
0.794932
0.879362
0.826447
0.425764
0.999915
0.999912
0.879024
0.125764
0.0159014
0.0159099
0.0159221
0.158742
0.413004
0.247599
0.00662809
0.000252294
0.000133095
2.13882e-05
8.58185e-06
5.50068e-06
1.58886e-05
0.000456115
0.222488
0.90551
0.905355
0.905187
0.490469
0.4569
0.684941
0.68482
0.683332
0.680406
0.287121
0.238798
0.11841
0.00812938
0.0080422
0.000283856
0.0994776
0.116091
0.128404
0.319156
0.719494
1
0.999932
0.999926
0.979989
0.205188
0.016103
0.0159221
0.0158702
0.279093
0.435831
0.181559
0.00136896
0.000112637
3.43054e-05
2.26112e-06
9.6417e-07
1.09999e-06
6.16707e-08
5.96098e-05
0.0659351
0.802065
0.905227
0.895325
0.613194
0.530698
0.684684
0.683332
0.680669
0.669289
0.633632
0.470669
0.0148672
0.00864346
0.00847357
3.83177e-05
1.27138e-05
5.44729e-05
0.000199986
0.000774539
0.11511
0.580956
0.999911
0.99992
0.999943
0.288999
0.0184037
0.0167857
0.0174289
0.506064
0.452655
0.0673239
0.000550251
5.30609e-05
7.83721e-06
1.0374e-06
3.33051e-07
6.73303e-07
5.32595e-09
1.55733e-08
0.000853206
0.284527
0.904441
0.636115
0.359627
0.671753
0.687058
0.682046
0.630566
0.284023
0.276599
0.192736
7.72118e-05
0.00226989
0.00829723
1.27143e-05
1.86754e-06
8.61581e-06
3.51279e-05
0.00016801
0.000509823
0.00315251
0.999904
0.999914
0.999927
0.41164
0.0215221
0.0187955
0.212294
0.658244
0.384363
0.0171374
0.000292484
2.5101e-05
3.78189e-06
4.11078e-07
1.22432e-07
1.90365e-08
1.09136e-08
-1.50405e-08
-4.52232e-08
0.0855549
0.901097
0.552216
0.141606
0.481327
0.609046
0.618028
0.171218
4.61682e-09
5.24753e-09
5.00867e-08
2.59256e-07
0.000105472
0.000948925
5.50254e-05
3.87383e-07
1.67811e-06
6.0295e-06
4.39656e-05
0.000155983
0.0012384
0.998677
0.999913
0.999905
0.763021
0.136156
0.151887
0.714565
0.711481
0.24275
0.00213609
0.000165686
1.54697e-05
2.39446e-06
1.99994e-07
2.41498e-08
5.56024e-09
1.10869e-08
1.10515e-10
1.39559e-10
0.0498278
0.872339
0.734687
0.116421
0.0280598
0.109003
0.106442
3.3064e-09
3.3064e-09
4.61552e-09
5.26916e-09
5.00502e-08
7.72964e-07
1.02403e-05
0.000110193
5.65428e-08
3.55228e-07
1.28063e-06
7.26049e-05
0.000637405
0.00228814
0.991919
0.999904
0.999714
0.999367
0.739663
0.806155
0.852775
0.638879
0.0995413
0.00114458
9.905e-05
1.16702e-05
1.62639e-06
8.88827e-08
5.09521e-09
1.01474e-09
5.73186e-10
5.55325e-11
7.34958e-11
0.0210365
0.7138
0.788997
0.275118
0.00592064
2.646e-05
1.21856e-06
1.42223e-08
9.73841e-09
2.96207e-09
8.13186e-09
2.45492e-07
7.97794e-05
0.000161107
0.000130854
4.44732e-09
3.31713e-08
2.97814e-07
3.80447e-05
0.00104615
-3.44547e-18
0.904188
0.999668
0.999085
0.998556
0.987841
0.951147
0.857872
0.390569
0.0116686
0.000570753
5.26564e-05
1.03701e-05
1.22107e-06
2.44558e-08
1.8222e-09
1.8114e-10
5.04135e-11
4.36822e-11
5.10527e-11
9.08996e-10
0.594312
0.78936
0.602383
0.0417256
0.00012625
5.56939e-06
7.93391e-08
-8.93772e-09
-2.36857e-11
-8.52603e-09
2.28441e-08
5.70764e-05
0.000161567
6.45827e-05
1.04483e-10
-2.53654e-10
-1.54322e-08
9.00509e-06
0.000317873
0.00185734
0.355006
0.899118
0.998537
0.990996
0.984588
0.914784
0.591629
0.0864349
0.00223528
0.00026134
3.86373e-05
6.82221e-06
5.998e-07
1.1081e-08
1.04003e-09
1.47808e-10
3.97704e-11
3.93085e-11
4.36822e-11
5.95199e-09
0.486931
0.786214
0.708323
0.075209
0.000127198
6.62504e-06
-1.14712e-06
-2.24188e-13
-8.25949e-09
-5.89616e-11
2.58202e-10
4.32327e-07
6.31815e-06
1.44512e-06
0
-1.0582e-10
-1.38723e-09
1.4738e-05
1.22738e-05
0.290911
0.00455539
0.302699
0.745768
0.830542
0.748677
0.495494
0.119221
0.00914159
0.0011996
0.000259342
4.15244e-05
4.05824e-06
8.43903e-08
5.95342e-09
5.69058e-10
5.64207e-11
7.5194e-12
2.9869e-11
-4.9816e-10
4.3816e-08
0.43936
0.777968
0.685589
0.074219
8.71054e-06
-1.02072e-05
7.49462e-08
-3.74444e-14
-1.36704e-08
-3.94676e-10
2.23883e-10
5.72266e-09
1.30954e-09
-2.63997e-11
-5.3541e-11
-9.89771e-10
-7.72582e-10
6.11971e-06
5.01737e-06
0.684452
0.00183834
0.0112792
0.125252
0.187362
0.131783
0.0393452
0.00605381
0.0020879
0.000420287
0.000123393
2.57137e-05
2.97551e-06
1.35241e-08
1.2028e-09
1.1859e-10
0
-8.83552e-11
-7.5908e-12
-6.12036e-09
3.43253e-07
0.439453
0.767514
0.522334
0.0242531
4.68374e-05
1.84151e-06
3.20604e-08
-9.8733e-15
-1.9075e-08
-7.47262e-10
-1.69734e-10
1.67295e-11
4.24207e-12
-3.75825e-13
-1.12745e-11
-1.28604e-11
-1.57431e-11
8.74158e-09
2.35294e-07
0.56309
0.000630452
0.00205497
0.00538148
0.00675265
0.0054826
0.00324699
0.0014236
0.000421072
8.20903e-05
9.29005e-06
2.19304e-06
6.33218e-07
8.28781e-09
8.42476e-10
4.56884e-11
0
-2.99036e-10
-2.57438e-10
-5.64944e-08
2.66088e-06
0.503348
0.756773
0.37646
0.0038831
1.92244e-05
1.20552e-06
4.45414e-09
-8.7176e-11
-2.22691e-08
-9.8086e-10
-8.46292e-11
-2.87044e-11
8.97252e-28
-2.3566e-12
-1.34583e-12
-1.6733e-10
-2.20293e-10
4.5304e-08
0.000135263
0.0846313
0.000290387
0.000386301
0.000829176
0.00119018
0.00107518
0.00071394
0.00033981
0.00010309
1.66203e-05
1.98188e-06
2.36047e-07
2.43553e-08
2.6328e-09
2.19415e-10
-1.54424e-13
-5.80748e-10
-5.75298e-10
-1.01805e-09
-5.83356e-07
0.0207707
0.560445
0.746718
0.260607
0.000786608
2.32465e-07
8.20382e-08
5.83496e-09
-4.75499e-11
-1.99746e-08
-1.16238e-09
-1.02548e-10
-4.86824e-11
2.75237e-14
-4.20728e-14
8.30587e-12
-3.43556e-10
3.87508e-09
1.99309e-07
0.000260394
0.00134279
0.000260884
0.000234617
0.000240143
0.000220271
0.000224464
0.000171433
9.71646e-05
2.42798e-05
3.80759e-06
4.67307e-07
1.37585e-07
9.45687e-08
2.49417e-08
2.71361e-09
2.19807e-10
7.84116e-26
-2.12007e-09
-8.81838e-11
2.78121e-07
0.168965
0.603637
0.690098
0.13351
0.000528483
2.40018e-06
6.54966e-07
3.7716e-09
-4.91481e-11
-1.14182e-08
-1.04934e-09
-1.02066e-10
-5.15853e-11
3.46246e-12
1.65005e-11
1.97773e-10
2.55812e-09
5.7941e-08
1.08706e-06
3.21199e-05
7.9416e-06
0.000531365
0.000229593
0.000164912
0.000102061
9.85193e-05
7.904e-05
5.81991e-05
9.69621e-05
3.40942e-05
0.000477657
0.000953211
0.00141019
0.00239533
0.00237857
0.00093123
2.51641e-07
-7.95646e-08
3.89351e-07
7.26321e-06
0.353837
0.592969
0.474508
0.04506
0.000268398
1.08563e-05
2.69853e-07
2.08592e-10
-1.05855e-11
-2.85061e-09
-6.24544e-10
-6.86862e-11
0
3.02601e-11
1.56556e-10
1.96093e-09
3.53714e-08
5.38102e-07
4.93909e-06
2.81705e-05
-1.60486e-07
0.000667391
0.000753191
0.000340949
9.65188e-05
8.02917e-05
5.92173e-05
4.87776e-05
0.000162078
0.00232151
0.00274343
0.00285323
0.00287092
0.00288126
0.00288443
0.00267428
0.000202854
3.63182e-06
6.485e-06
9.64132e-05
0.477556
0.569061
0.320618
0.00769925
0.000105476
3.49125e-06
6.62959e-08
-3.80362e-10
-3.03229e-09
-1.39779e-09
-1.91822e-10
2.13679e-12
5.37838e-11
1.63623e-10
8.95706e-10
1.53093e-08
2.41899e-07
2.97947e-06
2.37649e-05
0.000160917
0.228026
0.000539462
0.000701358
0.000847541
0.000750701
0.000296333
6.17436e-05
4.87776e-05
0.000106139
0.00190983
0.00285062
0.00287092
0.00288126
0.00288443
0.00288611
0.00168458
6.25056e-05
2.4863e-05
2.22118e-05
0.212132
0.548615
0.564806
0.129057
0.000752429
2.15487e-05
8.88454e-07
9.62835e-09
-5.05342e-11
-1.37693e-09
-3.61319e-10
2.1901e-11
1.72404e-10
3.00286e-10
6.41034e-10
5.66159e-09
2.04596e-07
1.16977e-05
1.63359e-05
9.91982e-05
0.000320463
0.752559
0.000497847
0.000499528
0.00048017
0.000736074
0.000756309
0.000730982
0.000285627
1.72693e-05
0.000174138
0.000854991
0.00174182
0.00283628
0.002815
0.00168389
0.000104271
3.22302e-05
4.6083e-05
0.000334438
0.427629
0.528097
0.308963
0.00762556
0.000179437
5.04187e-06
1.97051e-07
5.1386e-10
-1.61909e-12
-4.79184e-10
2.22706e-13
3.9964e-10
8.00057e-10
7.89119e-10
1.99712e-09
2.46141e-08
3.93158e-07
8.10748e-05
0.000325038
0.000520769
0.000705265
0.90181
0.349055
0.0440749
0.00038386
0.000376581
0.000431443
0.000430498
0.000212025
1.596e-05
1.64868e-05
2.19624e-05
4.96333e-05
0.000285186
0.000257896
5.98261e-05
8.08859e-06
2.03123e-05
-3.83421e-05
0.320049
0.466509
0.4695
0.0775287
0.000965802
0.000262082
0.000205304
0.000109628
2.36077e-06
-8.97251e-28
-6.12236e-11
2.97554e-10
1.10975e-09
1.36339e-09
1.47311e-09
3.59321e-09
4.34043e-08
6.88826e-07
9.57171e-05
0.0027985
0.00689322
0.00444269
0.537267
0.363355
0.363355
0.207849
0.0163248
4.8515e-05
2.52959e-05
1.59558e-05
1.60782e-05
1.6059e-05
1.57271e-05
1.07368e-05
8.86244e-06
7.69307e-06
7.09341e-06
7.59008e-06
8.08715e-06
0.292621
0.438472
0.449595
0.100818
0.00113713
0.000466033
0.000656522
0.000814902
0.000618441
1.09956e-05
9.60736e-13
7.56818e-11
7.71914e-10
1.50573e-09
1.5866e-09
1.66057e-09
2.70315e-09
1.85064e-08
2.32016e-07
4.09812e-06
0.00417758
0.0125681
0.0125681
0.0742504
0.0834202
0.285692
0.314119
0.314119
0.189156
0.0956781
0.0489282
0.00491118
1.57735e-05
1.07897e-05
8.9915e-06
7.69307e-06
7.09063e-06
7.13435e-06
0.0910365
0.396247
0.409922
0.407407
0.0853567
0.00044397
0.000237274
0.000347795
0.000704592
0.000827507
0.000790562
3.70305e-12
1.92147e-12
1.60118e-10
9.63476e-10
1.6016e-09
1.65201e-09
1.63059e-09
1.85253e-09
3.44129e-09
-3.72448e-09
-6.04449e-08
0.00262782
0.0119735
0.00749039
0.00289623
-2.52689e-07
0.0131163
0.123439
0.236288
0.263569
0.263583
0.26053
0.22744
0.201771
0.186685
0.184391
0.188746
0.219014
0.371721
0.386976
0.393422
0.251119
0.00165366
0.000158029
0.000148455
0.0002002
0.000443518
0.000828878
0.000828176
0.000808555
2.6851e-05
3.70305e-12
1.82618e-10
9.5288e-10
1.53003e-09
1.61082e-09
1.59471e-09
1.76742e-09
2.17952e-09
-4.29887e-09
-1.11497e-08
0.000529734
0.00581057
-8.75904e-08
0.000517135
1.37219e-08
1.32106e-07
3.91696e-07
0.0156407
0.0913732
0.14431
0.203054
0.277466
0.278509
0.280331
0.282328
0.283327
0.283227
0.265802
0.153199
0.0080002
6.93296e-05
6.95402e-05
0.000122613
0.000153386
0.000354868
0.000829002
0.000828921
0.00082884
0.000818666
5.65354e-05
7.78471e-12
1.3502e-10
7.65712e-10
1.41869e-09
1.57885e-09
1.57997e-09
1.67479e-09
1.88543e-09
3.92969e-10
1.14848e-25
6.34282e-05
3.93391e-08
1.20066e-08
8.10578e-05
1.69915e-09
6.3042e-09
1.061e-08
4.0637e-07
8.10281e-06
0.000728991
0.0130963
0.0452159
0.0940444
0.12216
0.114672
0.0877151
0.0452357
0.00716426
2.45177e-05
2.39929e-05
5.46806e-05
6.93594e-05
0.00024669
0.000294769
0.000829002
0.000829072
0.000829002
0.000828558
0.000410949
1.27946e-11
1.10206e-11
5.66041e-11
4.77079e-10
1.27175e-09
1.54844e-09
1.58119e-09
1.70807e-09
2.05854e-09
1.06115e-09
7.81752e-10
8.00847e-06
9.2162e-09
2.43143e-09
1.89996e-11
1.28924e-10
3.66099e-10
1.15552e-09
-1.74448e-09
2.79514e-08
-1.64376e-08
1.28169e-06
2.17767e-06
-6.9179e-06
-8.08199e-06
2.91964e-05
5.26392e-05
3.12344e-05
2.45731e-05
2.40164e-05
2.40066e-05
9.31672e-05
0.000190534
0.000331235
0.000829321
0.000829072
0.000829118
0.000667516
0.000203887
4.48204e-08
1.19751e-11
1.19751e-11
1.19651e-11
1.32805e-11
2.69174e-10
6.67646e-10
1.6382e-09
1.97964e-09
2.94804e-09
3.46798e-09
4.89521e-09
5.71449e-08
1.38575e-07
2.68652e-08
-2.88098e-26
8.51505e-12
3.06221e-11
2.15189e-10
6.76353e-10
1.21677e-09
3.23585e-10
-2.34697e-08
3.13797e-08
8.58482e-08
4.67301e-08
2.7986e-05
6.60186e-05
0.000102421
3.01497e-05
2.41503e-05
7.42511e-05
9.64511e-05
4.48238e-05
0.000339099
0.00065542
0.000294213
9.08014e-05
1.83838e-05
1.87994e-07
1.311e-07
1.09893e-07
1.19751e-11
1.32831e-11
2.68169e-11
2.56959e-10
1.95837e-09
5.67514e-09
7.89563e-09
1.36351e-08
2.19292e-08
2.38167e-08
1.88675e-07
2.88768e-07
4.80726e-08
1.33794e-25
)
;

boundaryField
{
    leftWall
    {
        type            zeroGradient;
    }
    rightWall
    {
        type            zeroGradient;
    }
    lowerWall
    {
        type            zeroGradient;
    }
    atmosphere
    {
        type            inletOutlet;
        inletValue      nonuniform 0();
        value           nonuniform 0();
    }
    defaultFaces
    {
        type            empty;
    }
    procBoundary1to0
    {
        type            processor;
        value           nonuniform List<scalar> 
44
(
0.996642
0.977209
0.992985
1
1
1
1
1
1
1
1
0.999999
0.999983
0.999852
0.998869
0.875999
0.289371
0.0015614
8.74007e-07
1.08855e-06
1.36152e-06
1.36152e-06
2.4626e-06
4.62904e-06
1.10259e-05
3.42662e-05
5.28179e-05
0.000135506
0.0327601
0.235243
0.334825
0.334825
0.337047
0.165425
0.00190941
2.00998e-05
2.56314e-07
2.03434e-08
9.66999e-10
4.02206e-11
-1.11916e-12
-1.67003e-10
-3.16575e-10
-3.42517e-10
)
;
    }
    procBoundary1to3
    {
        type            processor;
        value           nonuniform List<scalar> 
45
(
-2.46411e-10
-1.71449e-10
-9.1003e-11
-3.04388e-11
-1.85445e-12
0
8.27591e-12
3.13997e-11
7.22417e-11
1.98341e-10
3.83051e-10
-8.29899e-11
5.46758e-10
1.77264e-09
3.43071e-09
0.000142777
0.00022936
2.67833e-05
2.37572e-05
6.08062e-05
7.45925e-05
1.91148e-05
1.23815e-05
5.39864e-05
1.73218e-05
1.78766e-07
7.04093e-08
4.46766e-08
8.06415e-08
2.10182e-07
1.89082e-06
1.05117e-05
2.91462e-05
3.42017e-05
2.91312e-06
7.21286e-08
1.16087e-07
1.02e-07
1.19717e-07
1.44147e-07
6.5758e-07
2.09986e-07
1.3437e-07
7.27899e-09
1.16244e-10
)
;
    }
}


// ************************************************************************* //
