/*--------------------------------*- C++ -*----------------------------------*\
| =========                 |                                                 |
| \\      /  F ield         | OpenFOAM: The Open Source CFD Toolbox           |
|  \\    /   O peration     | Version:  5.0                                   |
|   \\  /    A nd           | Web:      www.OpenFOAM.org                      |
|    \\/     M anipulation  |                                                 |
\*---------------------------------------------------------------------------*/
FoamFile
{
    version     2.0;
    format      ascii;
    class       volScalarField;
    location    "0.85";
    object      epsilon;
}
// * * * * * * * * * * * * * * * * * * * * * * * * * * * * * * * * * * * * * //

dimensions      [0 2 -3 0 0 0 0];

internalField   nonuniform List<scalar> 
1915
(
0.145919
0.0445045
0.117673
0.103344
0.1548
0.181102
0.206864
0.274211
0.27496
0.392037
0.366836
0.553126
0.494793
0.794331
0.676649
1.19766
0.935753
2.0061
1.25501
4.10683
3.4541
4.43647
6.16328
7.45608
8.60363
9.70745
10.7455
11.6997
12.5647
13.3451
14.057
14.7418
15.2554
15.5606
15.6894
15.6595
15.4786
15.1621
14.7609
14.3543
13.9826
13.6283
13.2458
12.7826
12.2235
11.5969
10.9354
10.2557
9.55649
8.82542
8.05134
7.23478
6.3887
5.50428
4.65071
3.75054
2.80148
1.86441
1.07736
0.413207
6.40573
7.08209
8.25773
8.0665
7.54981
7.12493
6.84878
6.67945
6.57171
6.50089
6.46808
6.49787
6.5326
6.54127
6.51911
6.46214
6.36727
6.23609
6.07904
5.91286
5.74923
5.58805
5.41992
5.23344
5.02487
4.79921
4.56309
4.31949
4.06664
3.79979
3.51473
3.21084
2.8905
2.55352
2.19686
1.82419
1.44643
1.08954
0.78043
0.68342
11.8331
8.64632
8.50525
7.68239
6.93478
6.44095
6.13127
5.91364
5.73509
5.57769
5.44406
5.34293
5.25457
5.17318
5.09664
5.01804
4.92846
4.82172
4.69742
4.56213
4.42522
4.28828
4.14658
3.99392
3.83013
3.65945
3.48644
3.3125
3.13483
2.94795
2.74681
2.52978
2.29824
2.05294
1.79309
1.51819
1.23599
0.968973
0.752439
0.888812
15.9206
9.74264
8.63339
7.66562
7.02225
6.63877
6.38664
6.17472
5.96011
5.73366
5.50509
5.29085
5.09306
4.91835
4.77157
4.64795
4.53459
4.41984
4.29427
4.15474
4.00942
3.86571
3.72014
3.56838
3.41122
3.25245
3.09684
2.94596
2.79675
2.64267
2.47698
2.29661
2.10215
1.8945
1.6739
1.44256
1.20612
0.976235
0.796938
1.00293
18.9549
10.5724
8.925
7.99984
7.51788
7.2687
7.10009
6.92126
6.68953
6.39816
6.06455
5.71881
5.38297
5.07966
4.82631
4.62505
4.46348
4.32248
4.18059
4.02407
3.85739
3.69335
3.53272
3.37419
3.21481
3.05675
2.9058
2.76464
2.6308
2.49754
2.35632
2.20185
2.03352
1.85175
1.6569
1.45175
1.24283
1.04154
0.885013
1.10591
21.2837
11.1958
9.33814
8.5349
8.2265
8.13798
8.10104
8.00834
7.80076
7.46403
7.02001
6.51521
5.99561
5.51156
5.10296
4.78297
4.54134
4.34994
4.175
3.99476
3.8059
3.6187
3.44354
3.27876
3.11538
2.95427
2.80292
2.6655
2.54053
2.42257
2.3031
2.17311
2.0289
1.86999
1.69726
1.51256
1.32216
1.14005
1.00305
1.25856
22.9866
11.6287
9.75266
9.10716
8.99014
9.10849
9.27513
9.34764
9.23498
8.90171
8.36298
7.6771
6.92021
6.18837
5.55997
5.06881
4.70785
4.44019
4.21789
4.00267
3.7882
3.58776
3.40834
3.24043
3.07305
2.90778
2.75409
2.61739
2.49673
2.3885
2.28744
2.18346
2.06484
1.92901
1.77758
1.61153
1.43397
1.25998
1.13361
1.43003
24.0748
11.8564
10.0526
9.58041
9.67173
10.0358
10.4742
10.8101
10.9035
10.6694
10.0936
9.22754
8.17971
7.12089
6.19495
5.46896
4.94034
4.56596
4.28168
4.02961
3.79707
3.59079
3.40987
3.24095
3.07135
2.90304
2.74725
2.61019
2.49118
2.38742
2.29648
2.21289
2.1228
2.01538
1.8883
1.74132
1.57385
1.39757
1.2703
1.5924
24.5716
11.8732
10.1803
9.8873
10.1829
10.7599
11.4486
12.122
12.5995
12.6526
12.1768
11.1871
9.80598
8.33009
7.01395
5.98193
5.23882
4.72612
4.36473
4.0822
3.83756
3.62261
3.43788
3.26945
3.10139
2.93387
2.77804
2.64063
2.52171
2.41926
2.33121
2.25482
2.18455
2.10991
2.01895
1.89843
1.74278
1.55917
1.41957
1.76098
24.5941
11.7023
10.1535
10.0314
10.4907
11.1435
11.8827
12.7822
13.7123
14.3568
14.4245
13.5865
11.8385
9.84144
8.02407
6.6063
5.603
4.92861
4.48086
4.16517
3.90532
3.6759
3.48411
3.31847
3.15811
2.99793
2.84534
2.7078
2.58753
2.48431
2.39642
2.32049
2.25447
2.19857
2.14755
2.07613
1.94574
1.75321
1.59318
1.99189
1.36508
2.20195
1.59016
2.10306
2.03137
2.71309
2.80141
4.11412
4.0456
6.76523
5.83012
11.2476
7.72306
13.12
9.20354
12.571
9.77921
12.4801
10.0779
13.0871
14.0988
15.0955
15.5586
14.9463
13.5089
11.9779
10.6257
9.18149
7.53919
6.14897
5.12298
4.39495
3.92142
3.64826
3.53064
3.45568
3.19748
2.79103
2.38079
2.02634
1.74144
1.52352
1.36397
7.16787
5.08426
3.80149
8.12028
2.86079
2.87943
3.57415
9.78276
3.42359
3.72352
4.91735
10.95
5.53171
5.95132
6.9943
11.6576
9.97458
10.1815
9.61057
12.1209
14.1498
17.2328
12.7231
12.3796
15.3708
20.508
14.885
12.2279
16.7998
20.8151
14.9083
11.609
18.7561
20.6715
14.2742
10.8935
20.9538
21.0192
13.9599
10.3675
22.6303
22.2782
14.3491
10.273
23.9687
24.9253
15.7808
10.8608
25.0836
29.2599
18.6794
12.4066
23.5118
32.6462
23.6528
15.186
19.8631
29.2675
29.0853
19.0803
15.8477
23.157
29.7212
23.1229
12.8557
17.4638
23.9679
25.3208
11.1004
13.3696
17.9616
22.8856
9.8216
10.9258
13.1962
16.951
8.26351
9.56122
10.3325
11.9783
6.57552
8.22504
8.83827
9.46179
5.30551
6.60624
7.72943
8.13897
4.45937
5.22014
6.23308
7.04079
3.94159
4.377
4.97057
5.72721
3.6524
3.88578
4.22668
4.66828
3.52201
3.61798
3.80764
4.06599
3.42028
3.48365
3.5926
3.72843
3.09383
3.30939
3.43668
3.54832
2.69659
2.98029
3.21157
3.36344
2.3196
2.60429
2.86608
3.07283
1.99825
2.25659
2.50804
2.73449
1.74438
1.97166
2.20165
2.42511
1.55562
1.75669
1.96659
2.18034
19.6628
11.2517
10.024
10.0574
10.6305
11.1874
11.7964
12.6935
13.7365
14.7431
15.5721
15.8154
14.3345
11.7012
9.23898
7.34046
6.03122
5.1735
4.62467
4.26488
3.98823
3.74626
3.54616
3.38639
3.24225
3.09707
2.95029
2.81246
2.68951
2.58418
2.49583
2.41936
2.35121
2.29626
2.26209
2.24588
2.18425
1.991
1.79557
2.30151
16.5803
10.7431
9.84216
10.0105
10.6379
10.987
11.4122
12.1569
13.1275
14.1596
15.1439
15.9266
16.1599
13.9652
10.6647
8.1682
6.5105
5.45248
4.78712
4.36694
4.07286
3.82825
3.62707
3.4778
3.35901
3.23621
3.09581
2.9565
2.83015
2.72293
2.63598
2.56124
2.49023
2.4285
2.38912
2.38592
2.40851
2.2838
2.03295
2.68072
14.5112
10.2464
9.60851
9.90682
10.4622
10.6014
10.8324
11.4065
12.2941
13.3222
14.3141
15.1309
15.6278
15.3334
12.2511
9.03214
7.00841
5.7482
4.96361
4.47519
4.15967
3.92058
3.72855
3.59408
3.50451
3.40837
3.28032
3.13954
3.00973
2.90352
2.82444
2.7596
2.69023
2.62034
2.56495
2.5406
2.57162
2.607
2.34499
3.16653
12.9634
9.76019
9.30408
9.68122
10.0934
10.1378
10.1746
10.5868
11.4273
12.5334
13.6011
14.3977
14.7889
14.7421
13.42
9.82974
7.48683
6.04475
5.14972
4.59665
4.25481
4.0236
3.8466
3.72732
3.6583
3.58429
3.48331
3.35631
3.22659
3.12711
3.06968
3.03341
2.97923
2.90752
2.83483
2.77302
2.75945
2.85535
2.76615
3.78479
11.7883
9.27812
8.93931
9.30277
9.65763
9.71258
9.57479
9.83759
10.6432
11.9001
13.2027
14.0206
14.3213
14.1323
13.1972
10.4066
7.91537
6.33114
5.33819
4.72562
4.3564
4.12774
3.96171
3.85001
3.7894
3.74073
3.67127
3.57581
3.47104
3.38938
3.37672
3.40585
3.39306
3.33659
3.25974
3.15899
3.05863
3.02939
3.10078
3.41925
10.9362
8.81281
8.54824
8.88476
9.25895
9.37457
9.12388
9.22941
9.95979
11.2801
12.8896
14.0651
14.3316
13.6729
12.5649
10.6908
8.30075
6.6015
5.52164
4.85236
4.45154
4.21475
4.04827
3.93114
3.87287
3.8512
3.82022
3.76104
3.70281
3.67288
3.73762
3.90265
3.9752
3.96076
3.91488
3.7988
3.61983
3.43281
3.28862
2.71641
10.3291
8.39702
8.15837
8.48721
8.91194
9.07932
8.79887
8.78472
9.42154
10.6626
12.3479
14.0073
14.4921
13.3933
12.1522
10.7649
8.6375
6.84871
5.69313
4.96979
4.53153
4.27585
4.10708
3.98563
3.92251
3.90761
3.90774
3.89514
3.87784
3.92554
4.11391
4.54481
4.77918
4.83824
4.89097
4.81258
4.6082
4.32758
3.93563
2.61234
9.8205
8.04859
7.7978
8.12894
8.60706
8.78711
8.53184
8.48939
9.06123
10.2005
11.781
13.3312
14.0513
13.1016
11.8938
10.7359
8.87012
7.06021
5.84766
5.07694
4.60291
4.32229
4.1514
4.03399
3.96668
3.94807
3.95435
3.97329
4.00151
4.09835
4.43505
5.22555
5.83726
6.03234
6.30259
6.33114
6.17477
5.93749
5.5671
3.83201
9.30618
7.76156
7.49218
7.83447
8.37153
8.53869
8.35602
8.33198
8.86953
9.92188
11.3547
12.6525
13.267
12.6506
11.6159
10.5742
8.96456
7.23547
5.9848
5.17575
4.67214
4.37095
4.19408
4.08038
4.01396
3.99444
4.00297
4.02951
4.08796
4.23135
4.6546
5.54226
6.6182
7.60241
8.2935
8.4748
8.39661
8.24494
7.95147
6.2592
8.79548
7.51762
7.252
7.61947
8.22733
8.39952
8.30694
8.28428
8.81678
9.81939
11.1347
12.1882
12.4881
12.034
11.2315
10.3159
8.97767
7.38038
6.10454
5.26706
4.74212
4.42772
4.2457
4.13601
4.07619
4.05966
4.07127
4.10279
4.17425
4.36143
4.81562
5.63256
6.95725
9.37249
11.0532
11.2795
11.1594
10.9751
10.3343
9.28556
8.41599
7.31584
7.07575
7.4803
8.15353
8.38401
8.27749
8.29195
8.86262
9.85893
11.0737
11.8346
11.7981
11.39
10.7858
10.0256
8.91832
7.48703
6.20692
5.34947
4.81275
4.49413
4.3147
4.21366
4.16624
4.15877
4.17768
4.21739
4.29951
4.52197
5.01304
5.84266
7.43038
10.6093
13.3162
12.8935
12.1639
12.8108
12.4762
12.1766
8.38272
7.22235
6.96686
7.33521
7.98505
8.25712
8.11207
8.30683
8.96806
9.98898
11.0963
11.4977
11.1932
10.7964
10.3317
9.70837
8.77606
7.521
6.27814
5.41816
4.88132
4.56773
4.40251
4.32091
4.29444
4.30512
4.33937
4.39106
4.47396
4.72148
5.23504
6.04698
7.59072
10.0703
11.8412
11.5508
11.495
12.4823
13.7124
14.7749
8.93239
7.39105
6.98441
7.18996
7.66544
7.90668
7.97225
8.36042
9.1211
10.152
11.0936
11.1008
10.6375
10.2525
9.87304
9.34512
8.54387
7.46029
6.30485
5.46871
4.94482
4.64267
4.49871
4.45762
4.46909
4.51305
4.57147
4.59265
4.67946
4.92968
5.39662
6.13328
7.34424
8.9134
10.0586
10.3685
11.031
12.5003
14.3533
17.2854
10.2762
8.00769
7.24571
7.19752
7.45037
7.6871
7.96067
8.50023
9.33415
10.3178
10.9589
10.6302
10.1063
9.74162
9.40371
8.93325
8.23767
7.32184
6.28714
5.49701
4.99968
4.71469
4.58801
4.5882
4.67165
4.79422
4.83278
4.79894
4.86724
5.07698
5.45141
6.02859
6.8876
7.93077
8.84939
9.61819
10.88
12.9019
13.996
19.4013
12.4371
9.19393
7.87085
7.48638
7.53189
7.75098
8.13545
8.768
9.63165
10.478
10.647
10.1084
9.59753
9.25445
8.92789
8.49488
7.89542
7.12461
6.23179
5.50799
5.04651
4.78394
4.67192
4.69356
4.81962
4.93601
5.02654
4.97652
4.98516
5.11437
5.3702
5.78045
6.39078
7.18171
8.06668
9.13298
10.775
13.0353
12.7233
20.0429
15.1928
10.9648
8.95519
8.14707
7.96307
8.11843
8.5346
9.18587
9.99484
10.5233
10.2097
9.58645
9.1225
8.78911
8.45492
8.05303
7.54604
6.90407
6.14647
5.50615
5.08867
4.85488
4.76109
4.78568
4.91547
4.97291
5.06266
5.02691
4.98903
5.03083
5.17337
5.44928
5.9066
6.57783
7.47888
8.71801
10.5444
12.7304
11.7175
19.9573
18.4422
13.2696
10.5325
9.23495
8.76484
8.78974
9.16552
9.76118
10.3293
10.3166
9.70027
9.10181
8.68848
8.34458
7.99266
7.62288
7.20669
6.68198
6.04748
5.4977
5.13033
4.93201
4.86486
4.90836
5.04985
5.08579
5.06535
4.98961
4.90145
4.86446
4.91313
5.09121
5.45935
6.07455
6.99327
8.34028
10.2004
12.2327
11.4521
19.6841
21.4678
15.9875
12.53
10.7178
9.90205
9.7276
9.99878
10.4034
10.4246
9.87683
9.18294
8.67054
8.28477
7.9127
7.54469
7.21374
6.88816
6.47411
5.95198
5.48813
5.17517
5.01877
4.98685
5.06513
5.24121
5.23974
5.08417
4.92503
4.77264
4.66613
4.64474
4.75982
5.07879
5.67093
6.6127
7.99356
9.7926
11.6792
11.4878
18.9886
19.8321
18.1005
14.6743
12.4014
11.178
10.7078
10.7042
10.6021
10.0305
9.28861
8.69686
8.25726
7.86974
7.47556
7.11276
6.83217
6.59313
6.28323
5.86935
5.47847
5.22621
5.11813
5.12789
5.2514
5.45204
5.37824
5.11101
4.85798
4.63581
4.47198
4.40374
4.4842
4.78184
5.37065
6.32473
7.68226
9.36085
11.0986
11.4435
18.0526
14.3327
16.0588
15.1436
13.051
11.6484
10.8968
10.4585
9.94141
9.27056
8.67935
8.19699
7.77893
7.38841
7.0166
6.70195
6.4861
6.32372
6.10534
5.78429
5.46507
5.2878
5.23411
5.28833
5.45457
5.64224
5.47608
5.12204
4.78581
4.50322
4.29854
4.20495
4.27341
4.56998
5.16668
6.11704
7.41447
8.94414
10.5257
11.0847
17.4647
10.402
11.6506
12.1888
11.5362
10.6737
10.0269
9.54042
9.06022
8.55772
8.06156
7.58618
7.15696
6.78707
6.49431
6.2927
6.17633
6.09002
5.93263
5.70242
5.47209
5.37028
5.37345
5.47361
5.67698
5.80655
5.52115
5.09437
4.69807
4.37564
4.14967
4.04966
4.1234
4.43323
5.04377
5.98402
7.18678
8.50512
9.88912
10.285
17.3019
8.6357
9.21164
9.71096
9.80294
9.57734
9.2722
8.93654
8.48313
7.93082
7.37441
6.8858
6.48331
6.17071
5.96852
5.88769
5.90071
5.91102
5.81272
5.6651
5.51583
5.48368
5.54422
5.69342
5.93077
5.94046
5.51089
5.02323
4.59156
4.25215
4.02301
3.93153
4.02215
4.3543
4.9859
5.92146
7.02604
8.07251
9.07039
8.88856
15.9282
7.48229
7.93125
8.36482
8.6714
8.76413
8.71907
8.52577
8.00067
7.27888
6.6975
6.2542
5.91718
5.68349
5.56301
5.55965
5.65411
5.7467
5.74578
5.65623
5.5966
5.63498
5.75409
5.95741
6.1956
6.00069
5.44896
4.91735
4.47056
4.13184
3.91313
3.83916
3.95247
4.31159
4.97288
5.92719
6.97954
7.81259
8.28478
7.6237
13.9737
6.35548
6.83523
7.20011
7.52796
7.70539
7.79189
7.75284
7.35628
6.68897
6.16189
5.77806
5.50885
5.35103
5.30797
5.36963
5.49089
5.60964
5.68355
5.66879
5.71971
5.83346
6.01168
6.2681
6.39709
5.95721
5.33543
4.78374
4.33951
4.01326
3.81191
3.75812
3.89286
4.27515
4.9652
5.95741
7.0196
7.74998
7.77117
6.77829
12.6605
5.23269
5.77248
6.19211
6.45806
6.58606
6.675
6.70983
6.55531
6.16419
5.77032
5.46171
5.25748
5.16919
5.19799
5.32171
5.45945
5.61171
5.70841
5.78028
5.91357
6.09496
6.32844
6.58293
6.42508
5.81851
5.1745
4.62661
4.19958
3.8924
3.71033
3.67359
3.82007
4.20659
4.89537
5.89072
6.938
7.47054
7.18441
6.1607
11.314
4.40496
4.81782
5.27421
5.6011
5.78457
5.85179
5.86948
5.79342
5.61949
5.42651
5.25162
5.1375
5.12001
5.20623
5.38713
5.56067
5.72336
5.81655
5.97741
6.18747
6.4311
6.69409
6.74351
6.25676
5.58872
4.96704
4.4486
4.04909
3.76532
3.60179
3.57555
3.71859
4.0797
4.71693
5.65041
6.59821
6.79636
6.35872
5.73787
10.0993
3.9328
4.20667
4.51286
4.82934
5.10383
5.19052
5.21803
5.23429
5.22074
5.17459
5.12563
5.12244
5.19749
5.33823
5.50973
5.67725
5.81856
6.01712
6.2633
6.55732
6.87204
7.01535
6.61944
5.95033
5.28834
4.71878
4.25062
3.88784
3.63134
3.48565
3.46456
3.5928
3.90797
4.45948
5.28537
6.11153
6.12384
5.6627
5.61949
9.33826
3.65421
3.83757
4.05364
4.27875
4.48135
4.6171
4.71055
4.81191
4.89817
4.92844
4.96699
5.06434
5.24004
5.42874
5.5654
5.77408
6.02222
6.31955
6.64351
7.03866
7.30833
7.00256
6.31701
5.59448
4.96477
4.45427
4.04167
3.72171
3.49572
3.36878
3.35233
3.46543
3.73667
4.20542
4.90266
5.60408
5.60016
5.22215
5.68957
9.41013
3.46905
3.60967
3.77028
3.94697
4.11831
4.26851
4.39074
4.50538
4.6173
4.72299
4.84426
5.00476
5.21007
5.44212
5.69475
5.9953
6.3318
6.74077
7.10985
7.46466
7.24296
6.6248
5.88524
5.2069
4.64555
4.19544
3.83718
3.56142
3.36784
3.26193
3.25405
3.36029
3.60432
4.01684
4.59036
5.14372
5.21168
4.96406
5.63805
10.2916
3.24708
3.40305
3.58596
3.74302
3.89923
4.0639
4.20219
4.33273
4.47508
4.63411
4.81696
5.03172
5.28331
5.57364
5.91039
6.3211
6.73595
7.14568
7.3277
7.18287
6.69902
6.05115
5.40062
4.82248
4.34056
3.95299
3.64778
3.41553
3.25526
3.17273
3.17797
3.28578
3.51747
3.8861
4.36001
4.77908
4.89802
4.83871
5.52932
11.5251
2.94747
3.14906
3.34729
3.5462
3.75207
3.96054
4.10055
4.24297
4.4156
4.62059
4.85663
5.12239
5.42595
5.78261
6.17873
6.5766
6.91718
7.08916
6.93052
6.54726
6.03207
5.47873
4.94365
4.46409
4.05896
3.73219
3.47784
3.28722
3.15971
3.10105
3.12074
3.23195
3.449
3.7714
4.16019
4.49418
4.63624
4.74071
5.56678
12.7793
2.65235
2.88345
3.10291
3.3043
3.51596
3.74617
3.95794
4.16993
4.4011
4.66191
4.95109
5.25438
5.5716
5.91385
6.25978
6.54093
6.63033
6.5632
6.28195
5.87919
5.43333
4.97645
4.53726
4.14143
3.80484
3.53473
3.3268
3.17407
3.07652
3.03935
3.07064
3.18092
3.37481
3.64463
3.95501
4.2282
4.4049
4.62718
5.61328
13.3981
2.40804
2.64625
2.87951
3.10531
3.3324
3.56316
3.78947
4.0375
4.30796
4.60222
4.9097
5.20763
5.49994
5.78502
5.99917
6.11399
6.08166
5.92694
5.64554
5.2949
4.92142
4.54331
4.18101
3.85522
3.57969
3.35949
3.19106
3.07007
2.99718
2.97672
3.01518
3.11821
3.28346
3.50131
3.74631
3.97724
4.18204
4.50136
5.60452
13.53
)
;

boundaryField
{
    leftWall
    {
        Cmu             0.09;
        kappa           0.41;
        E               9.8;
        type            epsilonWallFunction;
        value           nonuniform 0();
    }
    rightWall
    {
        Cmu             0.09;
        kappa           0.41;
        E               9.8;
        type            epsilonWallFunction;
        value           nonuniform List<scalar> 
43
(
0.413207
0.68342
0.888812
1.00293
1.10591
1.25856
1.43003
1.5924
1.76098
1.99189
2.30151
2.68072
3.16653
3.78479
3.41925
2.71641
2.61234
3.83201
6.2592
9.28556
12.1766
14.7749
17.2854
19.4013
20.0429
19.9573
19.6841
18.9886
18.0526
17.4647
17.3019
15.9282
13.9737
12.6605
11.314
10.0993
9.33826
9.41013
10.2916
11.5251
12.7793
13.3981
13.53
)
;
    }
    lowerWall
    {
        Cmu             0.09;
        kappa           0.41;
        E               9.8;
        type            epsilonWallFunction;
        value           nonuniform List<scalar> 
66
(
0.145919
0.0445045
0.0445045
0.103344
0.181102
0.274211
0.392037
0.553126
0.794331
1.19766
2.0061
4.10683
7.16787
5.08426
3.80149
8.12028
3.4541
6.40573
11.8331
15.9206
18.9549
21.2837
22.9866
24.0748
24.5716
24.5941
3.4541
4.43647
6.16328
7.45608
8.60363
9.70745
10.7455
11.6997
12.5647
13.3451
14.057
14.7418
15.2554
15.5606
15.6894
15.6595
15.4786
15.1621
14.7609
14.3543
13.9826
13.6283
13.2458
12.7826
12.2235
11.5969
10.9354
10.2557
9.55649
8.82542
8.05134
7.23478
6.3887
5.50428
4.65071
3.75054
2.80148
1.86441
1.07736
0.413207
)
;
    }
    atmosphere
    {
        type            inletOutlet;
        inletValue      nonuniform 0();
        value           nonuniform 0();
    }
    defaultFaces
    {
        type            empty;
    }
    procBoundary1to0
    {
        type            processor;
        value           nonuniform List<scalar> 
44
(
0.252024
0.147503
0.16591
0.205202
0.259371
0.331083
0.425246
0.546869
0.698344
0.87391
1.05205
1.27219
1.57698
2.01345
2.63142
3.46817
4.46967
5.53059
6.45932
7.20978
10.6245
10.6245
11.2272
11.4639
11.2004
10.4404
9.09382
7.63845
6.46257
5.50585
4.74616
4.18966
3.81271
3.59202
3.5016
3.45519
3.23501
2.85103
2.42807
2.04642
1.73542
1.49487
1.31526
1.18549
)
;
    }
    procBoundary1to3
    {
        type            processor;
        value           nonuniform List<scalar> 
45
(
1.25188
1.42201
1.60352
1.79785
2.00236
2.22722
2.46851
2.71177
2.95452
3.19848
3.44209
3.68351
3.93606
4.20508
4.48869
4.77141
5.03167
5.25862
5.4379
5.54784
5.57642
5.50336
5.33711
5.08985
4.79512
4.48183
4.16859
3.87217
3.60755
3.38409
3.20439
3.06654
2.96879
2.91298
2.90372
2.94382
3.03489
3.17151
3.34473
3.54035
3.74266
3.96595
4.34748
5.51263
13.3477
)
;
    }
}


// ************************************************************************* //
