/*--------------------------------*- C++ -*----------------------------------*\
| =========                 |                                                 |
| \\      /  F ield         | OpenFOAM: The Open Source CFD Toolbox           |
|  \\    /   O peration     | Version:  5.0                                   |
|   \\  /    A nd           | Web:      www.OpenFOAM.org                      |
|    \\/     M anipulation  |                                                 |
\*---------------------------------------------------------------------------*/
FoamFile
{
    version     2.0;
    format      ascii;
    class       volScalarField;
    location    "0.85";
    object      nut;
}
// * * * * * * * * * * * * * * * * * * * * * * * * * * * * * * * * * * * * * //

dimensions      [0 2 -1 0 0 0 0];

internalField   nonuniform List<scalar> 
1915
(
5.15498e-05
3.40292e-05
0.000334468
6.6241e-05
0.000517029
8.02782e-05
0.000654353
9.25176e-05
0.00077484
0.000104589
0.000892981
0.000117728
0.00102206
0.000133273
0.00117526
0.000153273
0.00136689
0.000182772
0.00167089
0.000233811
0.000142226
0.000153179
0.000168943
0.000181397
0.000191675
0.0002012
0.000209741
0.000217143
0.000223377
0.000228504
0.000232682
0.000236243
0.000238359
0.000239542
0.000240066
0.000239933
0.000239096
0.000237672
0.000236071
0.000234657
0.000233332
0.000231652
0.000229242
0.000225976
0.000222098
0.000217898
0.000213542
0.000209034
0.000204243
0.000198962
0.000193005
0.000186294
0.000178841
0.000170293
0.000161251
0.000150111
0.000136108
0.000119016
9.92048e-05
8.81876e-05
0.000269172
0.000793022
0.000858332
0.000915396
0.000993904
0.00110097
0.00123063
0.00137244
0.00151598
0.00165136
0.0017668
0.00184648
0.00190562
0.00195795
0.00200476
0.00204432
0.00207375
0.00209084
0.00209716
0.00209774
0.00209565
0.00208929
0.00207581
0.00205297
0.00202234
0.00198715
0.00194987
0.00191106
0.00186914
0.00182111
0.00176388
0.00169547
0.00161474
0.00151981
0.00140141
0.00125602
0.00107744
0.000839126
0.000528787
0.00013347
0.000328688
0.00123523
0.00144642
0.00162787
0.00186419
0.00213858
0.002422
0.00269423
0.00294551
0.00317103
0.00336611
0.00352621
0.00366821
0.00379833
0.00391569
0.0040155
0.00409194
0.00414066
0.00416252
0.00416436
0.00415316
0.00412916
0.00408935
0.00403086
0.00395643
0.00387152
0.00378088
0.00368602
0.00358443
0.00347061
0.00333845
0.00318378
0.00300408
0.00279565
0.00255059
0.00225797
0.00190479
0.0014681
0.000896479
0.000146253
0.00036481
0.00159473
0.0019921
0.00231209
0.00266908
0.00303216
0.00337465
0.00368943
0.00397944
0.00424925
0.00450094
0.00473343
0.00495627
0.00516903
0.00536521
0.00553531
0.00566958
0.00576167
0.0058104
0.0058211
0.0058032
0.005762
0.00569679
0.00560613
0.00549295
0.00536322
0.00522304
0.00507491
0.00491629
0.00474061
0.00453995
0.00430841
0.00404225
0.00373662
0.00338323
0.00297117
0.002485
0.00189323
0.00112901
0.000152718
0.000387262
0.00188346
0.00247268
0.00290229
0.00331469
0.00369629
0.00403975
0.00435235
0.00464591
0.00493123
0.0052155
0.00550068
0.00579192
0.0060843
0.0063641
0.00661441
0.00681952
0.00696869
0.00705723
0.00708843
0.00707298
0.00702171
0.00693844
0.00682409
0.00668055
0.00651369
0.00633076
0.00613527
0.00592526
0.00569428
0.00543366
0.00513623
0.00479729
0.00441147
0.00397035
0.00346242
0.00287064
0.00216277
0.00126002
0.000157188
0.000403267
0.00210437
0.00286433
0.00336627
0.00379086
0.0041585
0.00448159
0.00477563
0.00505569
0.00533549
0.00562682
0.0059373
0.00627432
0.00663311
0.00699415
0.00733068
0.00761737
0.00783553
0.00797544
0.00803902
0.00803783
0.00798648
0.00789495
0.00776571
0.00759953
0.00740262
0.00718343
0.00694625
0.0066898
0.00640879
0.00609537
0.0057414
0.00534119
0.00488952
0.00437909
0.00379797
0.00312652
0.00232945
0.00133027
0.000163665
0.000414993
0.00226183
0.0031585
0.00370439
0.0041231
0.00447004
0.00477247
0.00504853
0.00531202
0.00557602
0.00585481
0.00616282
0.0065158
0.00691617
0.00734415
0.00776399
0.00813718
0.00843339
0.0086354
0.00874108
0.00876443
0.00872496
0.00863524
0.00849833
0.00831585
0.0080952
0.00784588
0.00757251
0.00727405
0.00694655
0.00658489
0.00618193
0.0057301
0.00522489
0.00466113
0.00402758
0.00330115
0.00244074
0.00137884
0.000170482
0.000423369
0.00236035
0.00335848
0.00393232
0.00434336
0.0046755
0.00496612
0.0052338
0.00548866
0.00573905
0.00599777
0.00628365
0.00662283
0.0070325
0.00750154
0.00799022
0.00844594
0.00882368
0.00909545
0.00925331
0.00931229
0.00929365
0.00921211
0.00907325
0.00888042
0.0086422
0.00836883
0.00806479
0.00772893
0.0073581
0.00694953
0.00650006
0.0060037
0.00545569
0.0048522
0.00418384
0.00342457
0.00252129
0.00140226
0.000176597
0.000428935
0.0024062
0.00347564
0.00407166
0.00448189
0.00480769
0.00509369
0.00536331
0.00562422
0.00587475
0.00612065
0.00637974
0.0066834
0.00707012
0.00754755
0.00808092
0.00860667
0.00906243
0.0094072
0.00962611
0.00972804
0.00973446
0.00966534
0.00952983
0.00933283
0.0090836
0.0087923
0.00846294
0.00809426
0.0076836
0.00722926
0.00673107
0.00618946
0.0056039
0.00497193
0.00428355
0.00351174
0.00258944
0.00142064
0.000182335
0.000432449
0.00241164
0.00352759
0.00414512
0.00456328
0.00488792
0.0051692
0.0054442
0.00572172
0.00599239
0.00625236
0.00650071
0.00676006
0.00709876
0.00755148
0.00809992
0.00867586
0.00919997
0.00961581
0.00989792
0.0100456
0.0100794
0.0100259
0.00989889
0.00970443
0.00945126
0.0091481
0.00879835
0.00840071
0.007953
0.0074544
0.00690634
0.00631369
0.00568439
0.00502516
0.00432916
0.00356389
0.00265259
0.0014665
0.000189466
0.00240664
0.00130886
0.00297981
0.00232942
0.00333032
0.00290594
0.0035766
0.00330987
0.00385519
0.00381796
0.00424121
0.00455823
0.00472075
0.00503337
0.00512596
0.00522907
0.00533604
0.00530506
0.00542774
0.0053426
0.00539954
0.00549786
0.00563208
0.00579822
0.00601893
0.00627755
0.00651985
0.00670313
0.00682302
0.00699022
0.00725151
0.00758839
0.00796386
0.00833218
0.00865649
0.0089042
0.00904528
0.00911582
0.00916551
0.00924113
0.00936154
0.00952441
0.00971297
0.000201631
0.000178601
0.000162162
0.000211732
0.00160094
0.00133076
0.000957716
0.000523951
0.00252252
0.00212974
0.00148934
0.000786042
0.00310072
0.00271689
0.00194563
0.00106316
0.00382828
0.00339088
0.00246281
0.00138717
0.00452077
0.00418585
0.00303258
0.00175846
0.00490852
0.00458404
0.00344389
0.00210982
0.00515943
0.0047552
0.003657
0.00239004
0.00532943
0.00486066
0.00381128
0.0026392
0.00546776
0.00498478
0.00399902
0.00291347
0.00560895
0.00517661
0.0042586
0.00325603
0.00578493
0.00546271
0.00460876
0.00368669
0.00600256
0.00586569
0.00506039
0.00419987
0.00612782
0.00631992
0.00562553
0.00477826
0.00622115
0.0065754
0.00621953
0.00540581
0.00631757
0.0066076
0.00665323
0.00604209
0.00649678
0.00661772
0.00681268
0.00657549
0.00675579
0.00670269
0.00681995
0.00689356
0.00699764
0.00692778
0.00687694
0.00697446
0.00714378
0.00719744
0.00706582
0.00699217
0.00725003
0.00737551
0.00731584
0.00718683
0.00746376
0.00748562
0.00753058
0.00743903
0.00778701
0.00768137
0.0076739
0.00766875
0.00816415
0.00801497
0.00791236
0.00788046
0.00853555
0.00840035
0.00827343
0.00817468
0.00885875
0.00877272
0.00867183
0.00856941
0.00910145
0.00908796
0.00904684
0.00898016
0.00923685
0.00931696
0.00934782
0.00934849
0.00931699
0.00945539
0.00956123
0.00963061
0.00939063
0.00954822
0.00969949
0.00982719
0.009491
0.00964227
0.00980441
0.00996276
0.00962872
0.00976276
0.00991889
0.0100862
0.00979502
0.0099104
0.0100544
0.0102188
0.00055741
0.0024161
0.00353614
0.00417329
0.00460581
0.00493021
0.00520886
0.00549032
0.00578111
0.00607334
0.00636266
0.00663976
0.00689194
0.00716807
0.00756686
0.00809939
0.00870095
0.00927739
0.00975536
0.010097
0.010292
0.0103566
0.0103217
0.0102081
0.0100234
0.00977344
0.0094638
0.00909781
0.00867413
0.00819066
0.00764737
0.00704741
0.00639878
0.00571555
0.00501516
0.00430928
0.00356854
0.0026976
0.00152831
0.000198219
0.000683285
0.00240811
0.00351396
0.00416959
0.00461718
0.00494228
0.00522612
0.00551705
0.0058214
0.00612956
0.00643406
0.00673574
0.00703657
0.00730861
0.00763001
0.00811666
0.00871728
0.00932532
0.00985116
0.010244
0.0104861
0.0105861
0.0105746
0.0104792
0.0103113
0.0100715
0.00975979
0.00938101
0.00893368
0.00841468
0.00782429
0.00716756
0.00645609
0.00570936
0.00495287
0.00421275
0.00349243
0.00269282
0.00159308
0.000208406
0.000793246
0.00238194
0.00346465
0.00413796
0.00459279
0.0049221
0.00522039
0.00552912
0.00585344
0.00618005
0.00649699
0.00680531
0.00712366
0.00745655
0.00776203
0.00817572
0.00875079
0.00936824
0.00992564
0.0103594
0.0106447
0.0107829
0.0107995
0.0107265
0.01058
0.0103555
0.0100482
0.00966034
0.00919176
0.00863756
0.00799705
0.00727723
0.0064941
0.00567319
0.00484761
0.00405236
0.00331263
0.00258981
0.00161747
0.000219896
0.000888888
0.00233812
0.00338844
0.00407073
0.00452634
0.00486831
0.00518544
0.0055188
0.00587083
0.00622262
0.00655875
0.00687872
0.00719875
0.00755118
0.00791985
0.00828573
0.00881617
0.00942289
0.00999588
0.0104602
0.0107822
0.0109581
0.011006
0.0109577
0.0108322
0.0106243
0.01033
0.00994282
0.0094569
0.00886872
0.00817619
0.00738754
0.00652417
0.00561856
0.00471267
0.00384915
0.00306301
0.00236615
0.00152716
0.000232928
0.000986022
0.00228196
0.00328702
0.00396421
0.00442553
0.00478401
0.00511786
0.00547718
0.00586008
0.00624329
0.00660794
0.00694976
0.00728407
0.00764063
0.00803774
0.00843294
0.0089154
0.00949644
0.0100709
0.0105553
0.0109068
0.0111159
0.0111935
0.011168
0.0110608
0.0108735
0.0105972
0.010221
0.00973036
0.00911251
0.00836963
0.0075106
0.00656123
0.00556376
0.00457323
0.00363897
0.00279299
0.00205809
0.00136447
0.000221045
0.0011069
0.00222572
0.003165
0.00383161
0.0043035
0.00467773
0.00502502
0.00540408
0.00581644
0.0062314
0.00662969
0.00700216
0.00736154
0.00772091
0.00812475
0.00857796
0.0090403
0.00958834
0.0101538
0.0106481
0.0110202
0.0112548
0.0113557
0.0113481
0.0112586
0.0110937
0.0108404
0.0104808
0.0099978
0.00936507
0.00857944
0.00765911
0.00662285
0.00553008
0.00446176
0.00346964
0.00257282
0.00179379
0.00111849
0.000206146
0.0012669
0.00217381
0.00303383
0.0036875
0.00416859
0.00455347
0.00491141
0.00530954
0.00575337
0.00619827
0.00662485
0.0070281
0.00740716
0.00778604
0.00821626
0.00871078
0.00917989
0.00969586
0.0102458
0.010741
0.0111242
0.0113758
0.011496
0.0115051
0.0114309
0.0112819
0.0110496
0.0107112
0.010239
0.0096065
0.0087955
0.00784446
0.00672842
0.00553737
0.0044119
0.00339241
0.00247422
0.00167438
0.000984315
0.000215957
0.00146247
0.00213937
0.00290795
0.00354055
0.0040269
0.00441791
0.00478872
0.00521353
0.00569054
0.0061659
0.00661584
0.00703257
0.00742889
0.0078348
0.00830858
0.00883525
0.00932417
0.00981768
0.0103485
0.0108378
0.0112251
0.0114862
0.0116221
0.0116481
0.0115872
0.0114501
0.0112288
0.0109044
0.0104447
0.00981179
0.00899287
0.00803701
0.00688727
0.00559937
0.00445104
0.00344209
0.00253603
0.00174572
0.00104808
0.000260197
0.00169081
0.00213999
0.00280487
0.00340593
0.00389339
0.00428994
0.00468089
0.00513695
0.00564481
0.00614668
0.00661722
0.0070428
0.0074453
0.00788242
0.00839346
0.00894819
0.00946328
0.00995224
0.0104629
0.0109422
0.0113285
0.0115947
0.0117413
0.011781
0.0117323
0.011605
0.0113907
0.0110685
0.0106086
0.00996779
0.0091367
0.00813318
0.00697314
0.00571091
0.00459128
0.00362581
0.00275724
0.00198785
0.00123837
0.000306583
0.00196713
0.00219389
0.00274511
0.00330442
0.00378991
0.00419649
0.00461539
0.00509857
0.00562934
0.00614963
0.00663663
0.00707265
0.00747619
0.00793689
0.00847728
0.0090544
0.00959677
0.0100947
0.0105877
0.0110554
0.0114376
0.0117061
0.0118599
0.0119104
0.0118731
0.0117544
0.011544
0.0112175
0.0107425
0.01008
0.00920635
0.00813436
0.00694611
0.00581669
0.00482686
0.00391873
0.00310214
0.00235238
0.00147219
0.000344454
0.00232185
0.00232626
0.00275224
0.00325877
0.00373734
0.00416229
0.00460528
0.0051096
0.00565163
0.00618017
0.00667624
0.00711873
0.007527
0.00800804
0.00857384
0.00916864
0.00972637
0.0102396
0.0107214
0.011177
0.0115535
0.0118228
0.0119829
0.0120434
0.0120176
0.011908
0.0117012
0.011368
0.0108709
0.0101728
0.00924611
0.00810552
0.00687791
0.00583156
0.00498548
0.00413375
0.00338396
0.00272732
0.00174903
0.000378119
0.00278186
0.00257236
0.00285226
0.00328593
0.00374582
0.00419096
0.00464814
0.00516976
0.00571188
0.00623946
0.00673707
0.00717937
0.00759833
0.00810076
0.00868747
0.00929841
0.00986928
0.0103832
0.0108619
0.0113053
0.0116749
0.0119443
0.0121122
0.0121851
0.0121731
0.0120756
0.0118763
0.0115398
0.0110193
0.010286
0.00931933
0.00813759
0.00691086
0.00590297
0.00511171
0.00440394
0.0037993
0.0031358
0.00206995
0.000405107
0.00334481
0.00296459
0.00307648
0.00340992
0.00382693
0.00427442
0.00475312
0.00527621
0.0058068
0.00632456
0.00681594
0.00725085
0.00768768
0.00821255
0.0088156
0.00943893
0.0100225
0.0105422
0.0110101
0.0114392
0.0117996
0.0120675
0.012244
0.0123363
0.0123447
0.0122659
0.0120818
0.011738
0.0112076
0.0104606
0.00947976
0.00830937
0.00712162
0.0061324
0.00539689
0.00484036
0.00433603
0.00364771
0.00245839
0.00041908
0.00397726
0.00349854
0.00344852
0.00366484
0.00401779
0.00444648
0.00492281
0.00542721
0.00593437
0.00643253
0.00690682
0.00733407
0.00779435
0.00834098
0.00895612
0.009589
0.0101854
0.0107125
0.0111712
0.0115832
0.0119297
0.0121917
0.0123719
0.0124824
0.0125237
0.0124835
0.0123012
0.0119522
0.0114243
0.0106837
0.00972412
0.00860538
0.00748411
0.00653359
0.00585085
0.00538425
0.00491073
0.00419594
0.00280829
0.000420937
0.00463567
0.00412183
0.00395338
0.00405651
0.00433262
0.00471411
0.00515392
0.00562105
0.00609551
0.00656604
0.00700847
0.00743577
0.0079216
0.00848647
0.00910997
0.00975093
0.0103588
0.0108912
0.0113434
0.0117377
0.0120666
0.0123183
0.0124959
0.0126136
0.0126767
0.0126452
0.0124914
0.0121573
0.011638
0.0109205
0.010008
0.00896479
0.00792582
0.00703953
0.0064005
0.00594985
0.00544885
0.0046732
0.0030433
0.000415359
0.00530228
0.00478109
0.0045411
0.00455046
0.00474347
0.00505618
0.00543723
0.00585339
0.0062879
0.00672007
0.00712739
0.00756482
0.00807362
0.00865089
0.00927934
0.00992733
0.0105447
0.0110804
0.0115246
0.0119004
0.0122098
0.0124485
0.0126193
0.0127335
0.0127968
0.0127543
0.0126138
0.0123051
0.0118135
0.0111382
0.0102918
0.00933783
0.00838955
0.00757329
0.00695904
0.0064696
0.00589438
0.00501638
0.00318552
0.00041547
0.00598532
0.00545366
0.00516452
0.00509894
0.00521066
0.00544611
0.00575931
0.00611844
0.0065033
0.00688319
0.0072718
0.00772685
0.00825258
0.00883574
0.00946624
0.0101198
0.0107439
0.0112795
0.011713
0.012069
0.0123582
0.0125827
0.0127457
0.012857
0.01292
0.0128758
0.012714
0.0124135
0.0119515
0.0113263
0.0105536
0.00969137
0.00883184
0.00807827
0.007472
0.00690501
0.00624556
0.00526152
0.0032944
0.000412122
0.00661871
0.00612733
0.00579505
0.00566534
0.00570123
0.00586114
0.0061079
0.00640773
0.00672633
0.00705776
0.00744894
0.00792205
0.00845697
0.00904158
0.00967283
0.0103301
0.010957
0.0114887
0.0119082
0.0122414
0.0125099
0.0127203
0.0128763
0.0129874
0.0130564
0.0130044
0.0128119
0.0125049
0.0120647
0.0114865
0.0107843
0.0100057
0.0092241
0.00851683
0.00789255
0.00725709
0.00651103
0.00541675
0.00335581
0.000406772
0.00697135
0.00672443
0.00641083
0.00622776
0.00619231
0.00627916
0.0064575
0.00668291
0.00693473
0.00724828
0.00765537
0.00814093
0.00868113
0.00926891
0.00990248
0.0105601
0.0111831
0.0117053
0.0121085
0.0124146
0.0126631
0.0128595
0.0130091
0.0131221
0.0131946
0.0131228
0.0129034
0.0125856
0.0121601
0.0116218
0.0109802
0.0102706
0.00954866
0.00886701
0.00821716
0.0075231
0.00668621
0.00548133
0.00333643
0.000404906
0.00701398
0.00701037
0.00687671
0.00669629
0.00661104
0.00663081
0.00673225
0.00689499
0.00712665
0.0074524
0.00787462
0.00836972
0.00892026
0.00952037
0.01016
0.0108121
0.0114203
0.0119235
0.0123049
0.0125841
0.0128151
0.0129983
0.0131414
0.0132544
0.0133185
0.0132187
0.0129785
0.0126519
0.0122383
0.0117327
0.0111388
0.0104796
0.00979502
0.00912047
0.00844736
0.00770104
0.00677914
0.00548166
0.00331141
0.000406901
0.00708874
0.00703946
0.00700446
0.00692619
0.00686398
0.0068657
0.00694066
0.00709388
0.00733618
0.00767033
0.00809867
0.00860357
0.00917227
0.00979396
0.0104445
0.011086
0.0116674
0.0121366
0.01249
0.0127496
0.0129645
0.0131357
0.013272
0.0133813
0.0134224
0.0132865
0.0130299
0.0126996
0.0122981
0.0118188
0.0112591
0.0106305
0.00996178
0.00928211
0.00858507
0.00779861
0.00680207
0.00542944
0.00322311
0.000396997
0.00732605
0.00722554
0.00715545
0.00711659
0.00709744
0.00712202
0.00720531
0.00735206
0.00758204
0.00791309
0.00834838
0.00886695
0.00945465
0.0100916
0.010745
0.0113722
0.0119235
0.0123514
0.0126721
0.0129122
0.0131115
0.013272
0.0134022
0.0135064
0.0135061
0.0133261
0.0130566
0.0127281
0.0123393
0.0118801
0.0113407
0.0107246
0.0100545
0.00936118
0.008644
0.00782936
0.00678465
0.00535176
0.0030999
0.000367407
0.00758834
0.00749854
0.00742094
0.00738479
0.00738244
0.00742774
0.007523
0.00765797
0.00787446
0.00821499
0.00866237
0.00919538
0.00979165
0.0104235
0.0110556
0.0116507
0.0121667
0.0125634
0.0128488
0.0130719
0.0132563
0.0134075
0.0135339
0.0136255
0.013561
0.0133417
0.0130637
0.0127403
0.0123634
0.0119169
0.0113852
0.0107659
0.010081
0.00936885
0.00864118
0.0078246
0.00677669
0.00530956
0.00302299
0.000359425
0.00784596
0.00778927
0.00772187
0.00768438
0.00768001
0.00773474
0.00785032
0.00800841
0.00825012
0.00860388
0.00905905
0.00959232
0.0101781
0.0107856
0.011379
0.0119224
0.0123864
0.0127523
0.0130141
0.0132265
0.0133989
0.0135427
0.0136665
0.0137179
0.0135787
0.0133365
0.0130568
0.0127407
0.0123727
0.0119317
0.011397
0.0107626
0.0100522
0.00931584
0.00858263
0.00778255
0.00675496
0.00525459
0.00293355
0.000343884
0.00811915
0.00808627
0.00805951
0.00803638
0.00803376
0.00809263
0.00822586
0.00842547
0.0087112
0.00908041
0.00953085
0.0100454
0.0106011
0.011168
0.0117129
0.0121986
0.0126137
0.0129377
0.0131823
0.0133805
0.0135417
0.0136786
0.0137869
0.0137558
0.0135642
0.0133155
0.0130413
0.0127327
0.0123708
0.0119301
0.011386
0.0107304
0.0099892
0.00922233
0.00847664
0.0076855
0.00664021
0.00510951
0.0027585
0.00032898
0.00847903
0.00841832
0.0084155
0.00843737
0.00847407
0.00855185
0.00869783
0.00891642
0.00922673
0.00961153
0.010052
0.0105353
0.0110458
0.0115588
0.0120502
0.0124834
0.0128483
0.0131264
0.0133543
0.013538
0.0136877
0.013812
0.0138555
0.0137338
0.0135243
0.0132845
0.0130211
0.0127213
0.0123643
0.0119221
0.0113688
0.0106958
0.00992951
0.00913477
0.00837372
0.00757391
0.00646354
0.00485783
0.00251793
0.000319263
0.0089074
0.00884893
0.00883046
0.00885965
0.00893292
0.00904177
0.00921552
0.00946246
0.00978324
0.0101618
0.0105815
0.0110317
0.0114966
0.0119526
0.0123791
0.0127558
0.0130651
0.0133223
0.0135324
0.0137042
0.0138445
0.0139194
0.0138487
0.0136798
0.0134753
0.0132523
0.0130026
0.0127133
0.0123624
0.0119219
0.011367
0.0106904
0.00991787
0.00911065
0.00833309
0.0075075
0.00634319
0.00463423
0.0022409
0.000325667
0.00932291
0.00929918
0.00930167
0.00933946
0.00941724
0.00954859
0.00974315
0.0100031
0.0103181
0.0106728
0.0110638
0.0114805
0.011905
0.0123097
0.0126731
0.0130044
0.013287
0.0135231
0.0137169
0.0138824
0.013986
0.0139472
0.0138051
0.0136267
0.0134365
0.013229
0.0129948
0.0127185
0.0123774
0.0119453
0.0114011
0.01074
0.00998547
0.00918811
0.00839397
0.00753021
0.00633451
0.00455433
0.00211147
0.000342924
0.0096726
0.00970882
0.00975283
0.009822
0.00992503
0.0100736
0.0102716
0.0105197
0.0108134
0.0111451
0.0115048
0.0118805
0.0122571
0.0126186
0.0129515
0.0132495
0.013507
0.0137296
0.0139045
0.0140297
0.0140175
0.0139062
0.0137526
0.0135883
0.0134143
0.0132243
0.0130077
0.0127472
0.0124206
0.0120049
0.0114831
0.0108529
0.0101328
0.00935488
0.00855024
0.00765563
0.00645607
0.00467488
0.00224572
0.000359681
0.00993681
0.0100343
0.0101411
0.0102518
0.0103868
0.0105571
0.0107582
0.0109966
0.0112729
0.01158
0.0119077
0.0122453
0.0125817
0.0129059
0.0132065
0.0134825
0.0137216
0.0139124
0.0140207
0.014034
0.0139611
0.0138445
0.0137105
0.0135673
0.0134145
0.013245
0.013048
0.0128059
0.0124979
0.0121043
0.0116117
0.0110174
0.0103305
0.00958112
0.00877673
0.00785014
0.00663409
0.00488705
0.00250719
0.000372009
0.0101204
0.0102784
0.0104349
0.0105958
0.0107712
0.010969
0.0111748
0.011407
0.0116701
0.0119568
0.0122578
0.0125633
0.0128665
0.013161
0.0134326
0.0136724
0.0138666
0.0139852
0.0140103
0.013971
0.0138939
0.0137958
0.0136865
0.0135689
0.0134402
0.0132933
0.0131175
0.0128952
0.0126076
0.012238
0.0117747
0.0112117
0.0105553
0.00982631
0.00901634
0.00805796
0.00680558
0.00505257
0.00265617
0.000373168
0.0102687
0.0104644
0.0106589
0.0108497
0.0110525
0.0112717
0.0114967
0.0117374
0.0119967
0.0122709
0.0125526
0.0128317
0.0131016
0.0133585
0.0135856
0.0137712
0.013894
0.013954
0.0139511
0.013907
0.0138441
0.0137697
0.0136869
0.0135955
0.0134915
0.0133678
0.0132126
0.0130093
0.0127412
0.0123938
0.0119557
0.011415
0.010781
0.0100601
0.00923374
0.0082367
0.00694039
0.00515526
0.00273005
0.0003683
0.0104086
0.0106198
0.0108359
0.0110534
0.0112766
0.0115051
0.0117363
0.0119808
0.0122368
0.0125005
0.0127643
0.0130164
0.0132525
0.0134685
0.0136462
0.0137782
0.0138607
0.0138973
0.0138926
0.0138624
0.0138202
0.0137701
0.0137128
0.0136466
0.0135665
0.013464
0.0133266
0.0131392
0.0128871
0.0125574
0.0121362
0.0116108
0.0109897
0.0102667
0.00941626
0.00837538
0.00702795
0.00520341
0.0027547
0.000363041
)
;

boundaryField
{
    leftWall
    {
        type            nutkWallFunction;
        Cmu             0.09;
        kappa           0.41;
        E               9.8;
        value           nonuniform 0();
    }
    rightWall
    {
        type            nutkWallFunction;
        Cmu             0.09;
        kappa           0.41;
        E               9.8;
        value           nonuniform List<scalar> 
43
(
1.26045e-05
1.56264e-05
1.69692e-05
1.76273e-05
1.8152e-05
1.88795e-05
1.963e-05
2.02996e-05
2.09241e-05
2.17131e-05
2.26826e-05
2.37653e-05
2.5001e-05
2.64318e-05
2.56137e-05
2.40057e-05
2.39903e-05
2.71876e-05
3.15375e-05
3.54738e-05
4.28125e-05
4.62642e-05
4.80919e-05
4.86976e-05
4.99399e-05
4.41746e-05
4.38515e-05
4.33806e-05
4.33188e-05
4.82491e-05
4.6455e-05
4.438e-05
3.94451e-05
3.80434e-05
3.66967e-05
3.5545e-05
3.55109e-05
3.9387e-05
4.05666e-05
4.10315e-05
4.18794e-05
4.22889e-05
4.22338e-05
)
;
    }
    lowerWall
    {
        type            nutkWallFunction;
        Cmu             0.09;
        kappa           0.41;
        E               9.8;
        value           nonuniform List<scalar> 
66
(
6.24142e-06
4.14012e-06
4.14012e-06
8.02899e-06
9.62828e-06
1.09947e-05
1.23167e-05
1.37314e-05
1.53834e-05
1.74847e-05
2.05208e-05
2.56115e-05
2.21158e-05
1.98672e-05
1.81641e-05
2.3018e-05
1.6953e-05
3.07749e-05
3.70625e-05
4.0613e-05
4.28399e-05
4.4394e-05
4.54755e-05
4.61669e-05
4.65204e-05
4.66167e-05
1.6953e-05
1.8277e-05
2.01715e-05
2.14265e-05
2.24281e-05
2.33189e-05
2.40994e-05
2.47719e-05
2.53454e-05
2.58327e-05
2.62516e-05
2.66323e-05
2.68973e-05
2.70505e-05
2.71152e-05
2.70999e-05
2.70062e-05
2.68417e-05
2.66358e-05
2.64292e-05
2.62364e-05
2.60391e-05
2.58076e-05
2.55133e-05
2.51524e-05
2.47415e-05
2.42968e-05
2.38238e-05
2.33153e-05
2.27546e-05
2.21232e-05
2.14093e-05
2.06087e-05
1.96875e-05
1.86974e-05
1.74953e-05
1.59804e-05
1.4083e-05
1.18603e-05
9.17903e-06
)
;
    }
    atmosphere
    {
        type            calculated;
        value           nonuniform 0();
    }
    defaultFaces
    {
        type            empty;
    }
    procBoundary1to0
    {
        type            processor;
        value           nonuniform List<scalar> 
44
(
6.22894e-05
0.0005359
0.000914412
0.0011908
0.0014232
0.00164187
0.00186843
0.00212117
0.00241545
0.00276567
0.00319974
0.00356172
0.00381099
0.00398592
0.0041471
0.00433854
0.00458285
0.00486007
0.00513005
0.00533115
0.0054799
0.0054799
0.00555651
0.00566761
0.00583045
0.00602503
0.00618733
0.00632769
0.00651151
0.00675765
0.00706453
0.00742056
0.00779771
0.00816106
0.00847946
0.00872659
0.00886702
0.00893264
0.0089661
0.0090171
0.00911649
0.0092691
0.00946212
0.00967324
)
;
    }
    procBoundary1to3
    {
        type            processor;
        value           nonuniform List<scalar> 
45
(
0.00990436
0.00997012
0.0100696
0.0102006
0.0103572
0.0105449
0.01076
0.0109855
0.0112164
0.0114516
0.0116886
0.0119258
0.0121683
0.0124159
0.0126648
0.0129072
0.0131332
0.0133364
0.0135108
0.0136494
0.013751
0.0138161
0.0138488
0.0138549
0.0138436
0.0138226
0.0137958
0.0137629
0.0137203
0.0136611
0.0135755
0.0134514
0.0132753
0.0130344
0.0127146
0.0123035
0.0117879
0.011171
0.0104385
0.00955961
0.00847292
0.00707262
0.00520723
0.00274546
0.000357199
)
;
    }
}


// ************************************************************************* //
