/*--------------------------------*- C++ -*----------------------------------*\
| =========                 |                                                 |
| \\      /  F ield         | OpenFOAM: The Open Source CFD Toolbox           |
|  \\    /   O peration     | Version:  5.0                                   |
|   \\  /    A nd           | Web:      www.OpenFOAM.org                      |
|    \\/     M anipulation  |                                                 |
\*---------------------------------------------------------------------------*/
FoamFile
{
    version     2.0;
    format      ascii;
    class       volScalarField;
    location    "0.85";
    object      p;
}
// * * * * * * * * * * * * * * * * * * * * * * * * * * * * * * * * * * * * * //

dimensions      [1 -1 -2 0 0 0 0];

internalField   nonuniform List<scalar> 
1915
(
789.182
785.734
739.343
736.635
689.406
686.975
639.389
636.972
589.369
587.047
539.215
537.188
488.611
487.08
437.337
437.533
383.47
391.33
319.316
341.282
2282.76
2202.43
2150.09
2027.96
1834
1600.27
1363.78
1154.14
986.399
863.008
780.185
732.1
715.512
722.622
747.572
785.802
832.625
882.981
934.818
988.669
1043.64
1096.06
1141.95
1178.5
1204.97
1221.74
1229.61
1229.16
1220.53
1203.71
1179.08
1147.64
1110.71
1069.52
1026.05
983.479
947.696
926.126
922.555
933.886
2255.56
2168.07
2146.31
2014.29
1792.55
1533.26
1282.13
1066.55
897.33
775.186
695.535
652.372
633.971
637.229
658.697
694.386
740.624
791.235
842.802
895.635
949.293
999.646
1043.52
1079.01
1105.58
1123.21
1132.33
1133.42
1126.67
1112.21
1090.51
1062.61
1029.78
993.19
954.606
917.306
886.297
868.675
869.294
885.049
2297.01
2168.36
2088.03
1908.31
1663.09
1403.64
1166.34
967.627
811.686
697.209
621.137
576.292
553.699
553.201
570.652
601.591
643.852
691.306
739.622
790.169
844.198
894.782
937.967
972.526
998.943
1017.29
1027.86
1030.95
1026.74
1015.34
997.337
973.971
946.649
916.601
885.214
855.504
830.836
815.906
815.093
829.787
2336.5
2132.43
1958.92
1733.04
1481.12
1237.22
1022.69
845.719
707.265
605.485
538.278
500.306
487.186
490.279
507.808
537.295
573.811
613.866
654.175
697.274
747.452
799.41
843.014
876.87
902.538
921.034
932.795
937.99
936.47
927.979
912.91
893.295
871.103
847.34
822.562
798.834
779.809
765.38
760.711
770.759
2305.38
2025.54
1780.87
1526.95
1275.8
1049.19
858.166
704.703
586.653
500.888
445.321
417.63
417.531
431.538
454.15
486.976
524.214
562.223
598.613
637.614
678.412
722.89
762.314
793.162
816.488
834.21
846.831
854.288
855.888
850.336
836.96
819.067
800.907
782.818
763.854
744.975
728.982
717.719
707.815
712.416
2172.1
1843.49
1559.92
1294.04
1050.16
843.801
678.388
550.606
455.321
387.238
345.057
326.653
330.838
351.298
384.019
425.065
469.935
511.522
547.786
586.174
627.142
661.983
692.31
716.779
736.366
752.471
765.771
775.872
781.654
781.064
770.745
753.552
736.887
721.391
706.411
691.242
677.828
668.878
659.009
654.871
1940.65
1595.22
1299.84
1035.12
805.932
623.454
483.157
382.587
313.762
265.158
239.487
231.622
236.571
258.359
295.65
342.832
396.762
446.081
482.048
517.278
558.942
592.956
619.58
641.747
658.883
672.992
686.948
699.989
710.988
717.553
716.906
705.108
687.126
668.97
651.583
636.449
624.338
616.485
608.99
596.962
1632.87
1298.95
1013.47
759.675
550.105
391.148
276.747
205.734
161.329
131.13
130.308
137.27
145.639
168.678
204.387
251.002
308.032
364.799
408.668
437.582
469.17
506.034
542.102
568.185
582.745
593.779
608.608
624.862
640.297
653.951
662.405
663.854
650.484
630.731
606.088
582.799
568.004
561.399
555.629
550.82
1269.75
979.382
721.787
483.736
298.033
179.313
118.819
91.6363
70.6501
58.8977
64.0098
64.7062
66.129
85.6061
122.88
171.779
228.374
291.439
343.916
364.765
380.614
418.28
466.562
498.293
507.068
511.779
528.283
549.254
568.659
585.784
599.222
607.187
606.785
595.651
572.361
538.998
511.312
502.435
503.378
500.227
871.25
665.496
452.57
240.513
113.769
67.8817
47.1529
35.9078
33.0978
40.6821
48.577
47.7322
41.3737
31.2526
51.0278
99.791
165.862
239.7
300.833
332.061
340.378
355.661
400.92
436.991
433.611
423.913
441.976
471.479
496.933
517.301
532.72
542.505
548.79
546.92
539.035
511.737
466.173
439.304
441.923
441.591
238.338
221.142
165.863
130.981
105.867
67.1084
55.6383
24.0319
18.9253
6.71303
5.46756
4.47057
5.48131
5.16632
5.7755
5.40859
5.96501
5.61452
6.21225
5.81723
6.01487
6.29141
6.75589
7.40782
8.08648
8.82336
9.35139
9.73605
10.8434
6.91865
-7.58846
-22.9868
-24.4117
-11.2934
-2.72911
-2.38218
-2.41415
-2.50566
-2.56784
-2.61384
-2.65827
-2.70211
-2.74506
175.982
113.019
97.453
-4.23641
88.6821
43.0359
61.0996
139.203
31.5083
-11.365
15.4183
155.571
8.37038
-43.9219
-53.4462
66.2768
4.59765
-29.2798
-85.4622
-23.2801
4.5417
-0.174061
-54.7191
-67.7079
5.09377
2.60066
-24.0053
-63.1493
5.39674
3.98764
-10.2158
-33.1094
5.57653
5.03335
-2.48205
-12.4978
5.65665
5.40743
1.81682
-1.18312
5.69527
5.24151
3.2425
3.16448
5.93657
5.43805
3.43609
0.498029
6.69885
7.67225
5.76822
-8.293
7.70079
9.15793
9.44446
-5.63095
8.55932
9.57812
9.83372
6.14371
9.20365
9.73897
10.2435
11.0404
9.76294
10.0664
10.5946
11.7616
10.4963
10.7537
11.1618
11.8567
11.0842
11.5292
11.8977
12.4099
11.5115
12.4283
12.7023
13.1235
12.604
13.0011
13.357
13.7339
-2.26205
13.1153
13.936
14.3111
-20.233
-0.567981
14.0103
14.9133
-24.897
-22.6762
-2.08788
14.799
-10.3981
-26.977
-26.3478
-6.91243
-2.70414
-7.93671
-22.077
-29.9613
-2.39378
-2.73868
-4.7234
-15.4807
-2.5065
-2.52002
-2.78767
-3.45962
-2.60443
-2.63958
-2.66655
-2.67591
-2.65516
-2.70133
-2.73747
-2.72219
-2.69527
-2.73596
-2.7776
-2.80133
-2.73563
-2.77022
-2.80657
-2.84146
-2.77537
-2.80589
-2.83714
-2.86883
456.825
387.739
233.578
78.4991
41.2485
35.7328
28.3231
19.9547
15.5235
18.1002
29.9153
48.2855
47.6917
28.9992
14.6702
37.0181
101.43
183.048
262.821
317.309
334.524
334.218
358.069
392.743
374.047
342.672
353.596
390.379
424.271
449.663
468.786
480.609
485.309
488.088
485.762
476.033
441.377
384.924
374.786
379.136
366.007
210.128
90.6867
16.5928
20.0175
24.6207
22.0897
18.5711
16.4832
11.0825
8.63472
30.1329
40.0588
32.466
19.2966
8.36655
42.0674
116.594
200.766
281.245
321.872
328.528
336.497
359.347
339.991
313.597
302.143
318.251
351.272
381.812
406.006
421.238
426.306
427.201
426.257
421.776
402.63
351.362
307.474
316.284
311.586
117.832
22.5377
1.99813
10.6205
15.6819
16.5454
17.9132
18.9307
17.313
8.78844
9.16382
28.4218
28.3686
24.1043
14.7602
11.2207
58.4871
136.115
223.895
289.156
312.977
314.415
321.2
318.152
314.274
307.424
287.208
287.893
313.523
343.857
363.722
368.511
370.342
369.9
364.817
348.092
315.153
262.331
261.112
218.41
61.5982
1.35401
-1.93331
2.99593
4.78238
10.2749
15.9319
19.774
22.5375
19.3258
12.5322
20.9637
23.9228
21.2194
19.5796
11.5415
21.8812
85.0477
169.31
244.126
280.104
284.018
288.191
301.21
311.302
313.684
295.069
257.002
250.683
283.381
312.207
313.175
314.059
316.655
317.322
301.034
274.326
239.111
220.646
143.324
30.0639
1.98221
-2.78152
-2.40791
-2.64675
1.52935
10.0742
18.6371
25.8412
27.4123
24.6938
20.603
19.5646
19.2801
18.6139
17.3172
9.60046
45.3898
126.351
196.235
233.233
244.54
261.23
285.905
302.2
305.205
296.715
257.235
208.873
230.835
268.994
258.442
257.086
261.122
266.366
261.808
241.674
217.95
202.345
111.211
21.9672
5.53704
-2.35868
-4.91362
-5.2505
-2.53944
2.03847
12.0945
25.9488
28.3274
23.1873
17.88
18.0613
18.3648
18.074
17.8914
13.2127
19.1189
80.5297
147.201
189.907
203.422
217.974
249.708
275.316
287.016
282.507
251.074
193.201
193.339
205.138
180.278
193.142
203.394
213.247
218.756
211.565
200.928
193.75
97.9574
35.6007
15.382
-1.40196
-5.52981
-5.79793
-3.05825
-1.03867
6.0473
20.5564
24.0137
20.0911
17.8997
17.8461
18.0105
17.8299
17.6492
16.955
12.3108
45.8404
98.6092
151.129
176.758
174.831
186.507
212.84
240.397
249.328
227.533
174.683
139.181
101.682
79.4921
108.936
138.472
153.34
163.687
177.518
185.345
182.983
94.9933
56.986
31.6206
1.64786
-5.00001
-5.38528
-3.34076
-3.00589
2.4323
15.1334
19.0118
18.4735
17.876
17.8181
17.8221
17.6934
17.5757
17.8748
15.8575
30.8387
65.4342
112.705
148.006
145.521
142.801
149.633
164.414
186.385
179.471
137.118
55.8519
36.2803
20.6001
30.5766
61.4886
73.0774
81.5575
117.027
155.588
156.271
90.9708
77.8467
53.2207
7.89136
-3.02352
-4.27813
-3.62888
-6.13918
-3.64051
13.2613
17.5838
17.8327
17.7563
17.6894
17.6742
17.578
17.5036
17.8374
17.1688
23.8365
48.0585
82.7263
107.627
121.953
122.981
120.74
113.461
109.333
111.304
83.3782
15.2196
10.1331
8.14147
3.35594
10.9729
13.0579
15.2125
39.1447
93.1623
106.621
80.8399
92.6179
76.4859
18.5188
1.46089
-2.06127
-4.47698
-12.052
-8.44301
12.2463
17.3685
17.6385
17.639
17.5851
17.5646
17.4816
17.3816
17.2092
17.0748
16.1112
35.4101
66.6816
75.9849
89.1049
100.122
102.645
94.5809
63.6155
47.0879
31.814
5.59199
3.56598
3.43399
2.84493
3.16018
3.36935
4.28173
7.81576
24.0557
40.8496
64.9242
98.4347
97.0486
36.7448
10.6658
1.65656
-6.36261
-25.8459
-8.82636
13.437
17.3004
17.6267
17.5863
17.5379
17.4951
17.4078
17.2943
17.136
17.1143
11.6366
24.2153
59.2571
69.2874
67.0092
74.7583
83.0645
66.885
25.383
8.58125
5.60751
2.18388
2.43353
2.77048
2.95382
2.98557
3.06588
3.43807
4.58051
7.93365
11.7898
43.3448
93.1335
110.902
64.6413
25.9093
1.61441
-19.7907
-41.1028
-3.52564
15.6318
17.366
17.6176
17.5598
17.5115
17.4556
17.3704
17.2777
17.2039
17.1312
13.6306
14.8099
50.1386
75.4133
62.0168
46.8317
46.3785
19.5878
2.60177
1.57646
1.66345
1.91921
2.10332
2.37261
2.77391
2.8374
2.87095
3.0628
3.58311
4.80394
9.1119
15.0705
72.1345
100.963
83.7574
35.763
-17.5537
-54.8589
-37.5469
5.53005
17.0453
17.5234
17.5934
17.5474
17.4988
17.4355
17.3537
17.2774
17.2414
17.1508
15.262
8.01296
24.5797
60.2381
50.2708
21.5514
10.2351
1.91446
1.80365
1.71625
1.74007
1.8652
1.9959
2.16811
2.44895
2.51296
2.50898
2.60441
2.79239
3.05006
8.0223
-9.0857
37.8744
61.2483
49.7932
7.39893
-59.0036
-63.9306
-17.5964
12.806
17.5124
17.6554
17.6157
17.5581
17.4997
17.4283
17.3464
17.2717
17.2246
17.0898
16.5114
3.85817
-1.29993
23.8938
28.5623
12.6261
2.34918
1.62664
1.71976
1.72102
1.73021
1.8102
1.9067
2.02262
2.17003
2.19086
2.14646
2.14261
2.05144
1.92554
8.05133
-2.64665
5.30498
15.827
4.42495
-26.7462
-56.2537
-36.0373
4.16439
16.6066
17.6379
17.7123
17.6464
17.5789
17.509
17.4301
17.3463
17.268
17.2063
17.1492
17.1492
4.76685
-9.86105
2.78191
8.51016
5.11251
2.27227
1.77437
1.73366
1.6785
1.67059
1.72404
1.79136
1.85925
1.92155
1.91209
1.84131
1.7524
1.50121
1.28352
9.59399
11.5902
-9.70974
-15.8996
-24.4269
-37.0039
-32.7285
-2.75298
14.7947
17.5426
17.762
17.7493
17.678
17.6028
17.5233
17.4374
17.3516
17.2749
17.225
17.2351
17.1976
4.17177
-13.5036
-3.74579
2.67209
2.59189
1.9263
1.70714
1.63034
1.57469
1.56624
1.59932
1.64309
1.6789
1.70464
1.68063
1.60073
1.48223
1.26314
1.0511
8.6008
12.1815
3.37491
-11.2361
-20.4172
-18.5925
-1.668
14.0393
17.5051
17.8556
17.8682
17.8
17.7136
17.629
17.5397
17.4459
17.3562
17.281
17.2443
17.2807
17.0781
1.35584
-21.4229
-10.2146
0.437431
1.52069
1.59122
1.51165
1.4597
1.43066
1.42778
1.44871
1.4784
1.50405
1.51609
1.48765
1.41278
1.30127
1.19648
0.778741
10.5632
12.52
11.8908
6.47624
2.55158
6.69511
14.0955
17.3867
17.9463
17.9594
17.9194
17.8299
17.7406
17.6524
17.555
17.4507
17.3537
17.2803
17.26
17.3195
16.9182
-2.88225
-31.0755
-14.8677
-0.0433557
0.918399
1.29864
1.29155
1.27219
1.2653
1.26999
1.28728
1.31094
1.33317
1.34324
1.32186
1.25817
1.16833
1.12626
0.358335
3.05005
12.993
13.4921
13.2403
14.3249
16.0834
17.5963
17.9475
17.9239
17.9281
17.8959
17.8309
17.7589
17.6756
17.5697
17.4473
17.3365
17.2675
17.2816
17.3607
16.6204
-9.37993
-38.9271
-14.7013
0.398006
0.78129
1.05626
1.08015
1.08444
1.09158
1.10287
1.12091
1.14431
1.16831
1.18407
1.17662
1.13264
1.06249
1.05923
0.583037
0.693609
13.6813
14.3128
15.0827
16.1943
17.1333
17.6103
17.7482
17.7867
17.8449
17.8551
17.8275
17.7789
17.7035
17.581
17.4238
17.287
17.2278
17.2801
17.3091
14.7454
-20.3206
-39.2078
-11.924
0.629993
0.792479
0.876392
0.887031
0.899631
0.914043
0.930318
0.951577
0.978367
1.00827
1.03531
1.04777
1.0315
0.991314
0.981236
0.352788
2.79409
14.2786
14.9564
15.7015
16.4243
17.0041
17.3495
17.5365
17.6551
17.7711
17.808
17.7923
17.7488
17.6687
17.52
17.3249
17.1704
17.1351
17.1921
17.0078
7.51607
-34.7268
-36.0015
-7.30063
0.547793
0.720063
0.700988
0.694378
0.710855
0.730867
0.752256
0.777913
0.809847
0.848089
0.890386
0.929188
0.951027
0.957077
1.03415
0.206571
2.72443
14.7148
15.3339
15.9955
16.5518
16.9685
17.2495
17.4158
17.5218
17.6437
17.6889
17.6468
17.5756
17.483
17.3659
17.1801
17.0289
17.0248
17.0671
16.2313
-4.74143
-46.5924
-29.2863
-3.31206
0.113802
0.500981
0.487419
0.487351
0.512746
0.539919
0.566702
0.596555
0.633134
0.679453
0.737715
0.806182
0.871249
0.918953
0.998496
0.523365
3.09072
15.1298
15.5536
16.1355
16.6387
17.006
17.2343
17.3393
17.407
17.4819
17.4897
17.4058
17.3332
17.2697
17.2102
17.092
16.9783
17
17.0419
15.7294
-23.4822
-49.0003
-18.2678
-0.898969
-0.139874
0.214956
0.245532
0.270624
0.307305
0.34117
0.372086
0.404074
0.442418
0.493452
0.564446
0.662741
0.78174
0.856624
0.791105
0.507058
5.19926
15.4652
15.8548
16.2962
16.6666
16.9836
17.205
17.3163
17.3926
17.426
17.4121
17.3434
17.285
17.232
17.1578
17.0724
17.0042
17.0097
16.8951
1.60901
-45.3889
-38.3712
-7.63202
-0.689372
-0.276389
-0.0599424
0.00551373
0.0544429
0.0988434
0.136079
0.167867
0.198115
0.233198
0.282359
0.358381
0.490047
0.708246
0.837739
0.634962
-0.0533932
9.22352
14.0256
15.9384
16.636
16.8463
17.0084
17.1978
17.3413
17.4303
17.481
17.5035
17.4839
17.426
17.3375
17.2539
17.1973
17.086
16.903
15.0803
-27.5788
-50.4711
-21.2007
-1.93368
-0.83526
-0.431687
-0.283233
-0.206465
-0.15168
-0.108326
-0.0731396
-0.0451833
-0.0220984
0.00206605
0.0365646
0.0955614
0.232627
0.572174
0.784551
0.330159
-1.04873
6.12381
-15.0997
9.42233
15.8868
16.7327
17.1299
17.2948
17.4422
17.5221
17.5986
17.6463
17.6556
17.6163
17.5295
17.471
17.4285
17.1615
16.6458
-16.3716
-51.4802
-32.6937
-5.15178
-1.17406
-0.775464
-0.57361
-0.458174
-0.389756
-0.344413
-0.311502
-0.28376
-0.264274
-0.254094
-0.250322
-0.248473
-0.245262
-0.20049
0.0720513
0.338863
-0.147504
-1.07664
-4.64613
-29.4231
-23.0328
-3.53442
12.6357
15.9831
16.6723
17.2088
17.4475
17.6505
17.7692
17.8172
17.7944
17.6872
17.5313
17.1567
15.9554
-18.8509
-49.1535
-38.8143
-7.92988
-1.34949
-1.00351
-0.862767
-0.74863
-0.640873
-0.576914
-0.534638
-0.512117
-0.492956
-0.483836
-0.48955
-0.511578
-0.551997
-0.618635
-0.707052
-0.722754
-0.592363
-0.385487
0.40547
-4.44322
-9.87836
-23.2733
-29.0771
-19.8201
-6.09744
4.18088
10.4948
15.6354
16.8756
17.2188
17.3249
17.2198
16.8309
16.2428
1.39388
-31.393
-52.4051
-33.4303
-7.12786
-1.60882
-1.19188
-1.13987
-1.0792
-0.983402
-0.864986
-0.783007
-0.733872
-0.711852
-0.696955
-0.696196
-0.71597
-0.760786
-0.837016
-0.957587
-1.14202
-1.40499
-1.48334
-0.87802
-0.405925
-2.89761
-3.00131
-5.33925
-13.4447
-23.0491
-28.2053
-25.3446
-19.5814
-12.683
-8.32125
-6.0774
-5.83885
-8.3103
-14.9872
-30.3918
-46.884
-40.3026
-20.7003
-4.17959
-1.83473
-1.35377
-1.3554
-1.3599
-1.30831
-1.204
-1.0798
-0.984568
-0.931166
-0.90513
-0.890662
-0.894389
-0.922759
-0.981032
-1.0766
-1.22235
-1.44082
-1.7593
-1.99957
-1.75749
-1.70452
-2.12768
-2.67631
-2.97544
-3.73206
-5.97402
-11.2674
-16.6657
-22.4777
-26.361
-29.3953
-30.7896
-31.8826
-33.8586
-35.8339
-31.9524
-19.915
-6.37466
-2.45462
-2.01941
-1.81052
-1.65445
-1.59965
-1.56145
-1.48518
-1.38029
-1.27136
-1.17498
-1.11911
-1.08833
-1.07187
-1.07601
-1.10645
-1.16752
-1.26475
-1.40678
-1.6066
-1.87315
-2.10226
-2.07749
-1.98905
-2.05563
-2.80201
-2.8304
-2.85757
-3.08767
-3.64429
-4.32586
-6.08286
-8.74712
-11.2489
-12.9964
-13.8264
-13.3118
-10.4393
-5.68833
-3.37288
-2.52051
-2.01145
-1.99684
-1.97092
-1.86661
-1.7899
-1.7184
-1.63349
-1.54278
-1.44547
-1.35237
-1.29682
-1.26163
-1.24216
-1.24394
-1.27118
-1.32684
-1.41401
-1.53565
-1.69358
-1.87956
-2.03436
-2.08444
-2.03944
-2.01451
-2.8775
-2.91955
-2.93432
-2.91143
-2.95142
-3.06698
-3.30792
-3.58217
-3.62413
-3.63708
-3.79382
-3.87121
-3.38406
-2.71901
-2.38423
-2.32842
-2.25755
-2.20279
-2.11932
-2.02349
-1.95086
-1.86218
-1.77187
-1.68388
-1.59656
-1.51744
-1.46319
-1.42506
-1.40348
-1.40211
-1.42288
-1.46852
-1.54035
-1.63784
-1.75701
-1.88495
-1.98783
-2.03015
-2.00267
-1.95422
-2.90574
-2.95144
-2.98886
-3.00947
-3.0417
-3.03781
-2.95595
-2.91219
-2.88712
-2.86502
-2.86392
-2.85454
-2.76452
-2.66606
-2.5967
-2.54313
-2.43884
-2.34914
-2.2678
-2.17858
-2.08728
-1.99124
-1.90075
-1.81551
-1.73825
-1.67056
-1.61649
-1.57738
-1.55518
-1.55081
-1.56411
-1.59791
-1.65372
-1.72869
-1.81688
-1.9059
-1.97458
-2.00064
-1.97186
-1.91849
)
;

boundaryField
{
    leftWall
    {
        type            calculated;
        value           nonuniform 0();
    }
    rightWall
    {
        type            calculated;
        value           nonuniform List<scalar> 
43
(
933.886
885.049
829.787
770.759
712.416
654.871
596.962
550.82
500.227
441.591
379.136
316.284
261.112
220.646
202.345
193.75
182.983
156.271
106.621
40.8496
11.7898
9.1119
8.0223
8.05133
9.59399
8.6008
10.5632
3.05005
0.693609
2.79409
2.72443
3.09072
5.19926
9.22352
6.12381
-4.64613
-4.44322
-2.89761
-2.12768
-2.05563
-2.01451
-1.95422
-1.91849
)
;
    }
    lowerWall
    {
        type            calculated;
        value           nonuniform List<scalar> 
66
(
812.723
809.278
785.734
736.635
686.975
636.972
587.047
537.188
487.08
437.533
391.33
341.282
199.947
136.985
121.418
19.7291
2282.76
2255.56
2297.01
2336.5
2305.38
2172.1
1940.65
1632.87
1269.75
871.25
2303.07
2224.33
2173.64
2051.5
1857.54
1623.81
1387.32
1177.69
1009.94
886.551
803.728
755.643
739.056
746.165
771.115
809.346
856.168
906.525
958.362
1012.21
1067.18
1119.6
1165.49
1202.04
1228.51
1245.29
1253.16
1252.7
1244.07
1227.25
1202.62
1171.18
1134.25
1093.06
1049.58
1007.02
971.24
949.665
946.098
957.137
)
;
    }
    atmosphere
    {
        type            calculated;
        value           nonuniform 0();
    }
    defaultFaces
    {
        type            empty;
    }
    procBoundary1to0
    {
        type            processor;
        value           nonuniform List<scalar> 
44
(
791.449
741.221
691.073
641.178
591.322
541.252
490.508
438.537
384.012
324.012
259.394
198.259
143.467
94.714
52.092
18.4339
4.47399
4.9235
6.1549
6.69584
6.43611
6.43611
6.6443
6.92816
7.32065
7.65909
8.03032
9.57389
7.80464
-0.357316
-13.869
-23.5306
-21.1139
-9.50431
-2.62899
-2.32956
-2.36866
-2.42676
-2.48023
-2.52835
-2.57562
-2.62265
-2.66902
-2.715
)
;
    }
    procBoundary1to3
    {
        type            processor;
        value           nonuniform List<scalar> 
45
(
-2.78801
-2.81495
-2.84183
-2.86907
-2.89644
-2.92685
-2.96236
-2.99676
-3.028
-3.05999
-3.07325
-3.05471
-3.04433
-3.03216
-3.02127
-3.01717
-2.98919
-2.90264
-2.80086
-2.71553
-2.6284
-2.52738
-2.44804
-2.37966
-2.29213
-2.19321
-2.10488
-2.02233
-1.94422
-1.87518
-1.81455
-1.76214
-1.72366
-1.70078
-1.69251
-1.69789
-1.71995
-1.76086
-1.8168
-1.88107
-1.94155
-1.98397
-1.99386
-1.96118
-1.90804
)
;
    }
}


// ************************************************************************* //
