/*--------------------------------*- C++ -*----------------------------------*\
| =========                 |                                                 |
| \\      /  F ield         | OpenFOAM: The Open Source CFD Toolbox           |
|  \\    /   O peration     | Version:  5.0                                   |
|   \\  /    A nd           | Web:      www.OpenFOAM.org                      |
|    \\/     M anipulation  |                                                 |
\*---------------------------------------------------------------------------*/
FoamFile
{
    version     2.0;
    format      ascii;
    class       volVectorField;
    location    "0.85";
    object      U;
}
// * * * * * * * * * * * * * * * * * * * * * * * * * * * * * * * * * * * * * //

dimensions      [0 1 -1 0 0 0 0];

internalField   nonuniform List<vector> 
1915
(
(-0.0264804 -0.0162372 0)
(-0.0050549 -0.0039914 0)
(-0.0367456 -0.0314017 0)
(-0.0164943 -0.0189921 0)
(-0.0379642 -0.0486889 0)
(-0.0165731 -0.0397395 0)
(-0.0363452 -0.0658014 0)
(-0.0147366 -0.0581789 0)
(-0.0336774 -0.0820971 0)
(-0.0133825 -0.0752447 0)
(-0.0293437 -0.0970467 0)
(-0.0117381 -0.0916156 0)
(-0.0215055 -0.109976 0)
(-0.00818867 -0.107511 0)
(-0.00819186 -0.119567 0)
(-6.82535e-05 -0.116034 0)
(0.0119033 -0.126295 0)
(0.0203572 -0.100128 0)
(0.0415046 -0.138114 0)
(0.072147 -0.0659949 0)
(0.101057 -0.181596 0)
(0.221059 -0.0089544 0)
(-0.0725481 0.122838 0)
(-0.388375 0.145203 0)
(-0.705597 0.145811 0)
(-0.995567 0.128895 0)
(-1.2362 0.102713 0)
(-1.41995 0.0739257 0)
(-1.54771 0.0457899 0)
(-1.62375 0.0201252 0)
(-1.65288 -0.00103535 0)
(-1.64164 -0.0157236 0)
(-1.60851 -0.02332 0)
(-1.56327 -0.0272051 0)
(-1.50918 -0.0295016 0)
(-1.44867 -0.0308783 0)
(-1.38366 -0.0314122 0)
(-1.31738 -0.0309277 0)
(-1.25213 -0.0305509 0)
(-1.18622 -0.0321701 0)
(-1.11519 -0.0360532 0)
(-1.0359 -0.0408169 0)
(-0.948295 -0.0450457 0)
(-0.85519 -0.0475287 0)
(-0.760328 -0.0483801 0)
(-0.665895 -0.048496 0)
(-0.572427 -0.0485105 0)
(-0.479754 -0.0486327 0)
(-0.387747 -0.0487335 0)
(-0.296848 -0.0484915 0)
(-0.208168 -0.0476409 0)
(-0.123037 -0.0461928 0)
(-0.0423961 -0.0443146 0)
(0.0329605 -0.0418315 0)
(0.101188 -0.0378447 0)
(0.158309 -0.0302966 0)
(0.196511 -0.0174283 0)
(0.208497 0.00512847 0)
(0.165663 0.0344286 0)
(0.0776528 0.0466417 0)
(-0.0970934 -0.137469 0)
(-0.15741 0.199467 0)
(-0.527642 0.331605 0)
(-0.870709 0.350806 0)
(-1.15441 0.321632 0)
(-1.36121 0.266005 0)
(-1.49919 0.202638 0)
(-1.58415 0.142358 0)
(-1.63065 0.0889584 0)
(-1.64984 0.0430256 0)
(-1.65071 0.00515131 0)
(-1.64052 -0.0231342 0)
(-1.61667 -0.041757 0)
(-1.57981 -0.0542589 0)
(-1.53205 -0.0636113 0)
(-1.47489 -0.0706431 0)
(-1.41042 -0.0746377 0)
(-1.34198 -0.075067 0)
(-1.27305 -0.0741383 0)
(-1.20386 -0.0764119 0)
(-1.13125 -0.0833029 0)
(-1.05258 -0.0919988 0)
(-0.967845 -0.0995303 0)
(-0.879398 -0.103414 0)
(-0.790081 -0.104121 0)
(-0.701412 -0.103377 0)
(-0.61369 -0.102451 0)
(-0.526702 -0.101748 0)
(-0.440327 -0.10092 0)
(-0.355024 -0.0992151 0)
(-0.271966 -0.0960458 0)
(-0.19259 -0.0914941 0)
(-0.117953 -0.0859961 0)
(-0.0488808 -0.0792613 0)
(0.0131433 -0.0693798 0)
(0.0656824 -0.0527681 0)
(0.103501 -0.0262732 0)
(0.122513 0.0143324 0)
(0.122132 0.0692027 0)
(0.0910266 0.116095 0)
(-0.226322 0.0395716 0)
(-0.429775 0.408487 0)
(-0.768484 0.541456 0)
(-1.03199 0.533621 0)
(-1.2263 0.45945 0)
(-1.36207 0.361483 0)
(-1.45699 0.264887 0)
(-1.52314 0.180219 0)
(-1.56782 0.109401 0)
(-1.59515 0.0510891 0)
(-1.60713 0.00397336 0)
(-1.60475 -0.0322781 0)
(-1.58885 -0.058931 0)
(-1.55936 -0.0796609 0)
(-1.51651 -0.0963924 0)
(-1.46234 -0.10954 0)
(-1.39948 -0.119344 0)
(-1.33151 -0.123192 0)
(-1.26157 -0.123278 0)
(-1.19134 -0.126757 0)
(-1.11897 -0.136148 0)
(-1.04206 -0.147851 0)
(-0.960669 -0.157658 0)
(-0.877148 -0.16229 0)
(-0.793815 -0.162623 0)
(-0.711585 -0.16111 0)
(-0.630394 -0.159489 0)
(-0.549794 -0.158278 0)
(-0.469495 -0.156867 0)
(-0.389884 -0.153999 0)
(-0.312259 -0.148678 0)
(-0.2383 -0.141077 0)
(-0.169174 -0.132012 0)
(-0.10556 -0.121255 0)
(-0.0486627 -0.106431 0)
(3.07103e-05 -0.0833665 0)
(0.0378886 -0.0476904 0)
(0.0600042 0.00400623 0)
(0.0658913 0.0769919 0)
(0.064201 0.170802 0)
(-0.294654 0.288607 0)
(-0.554929 0.631459 0)
(-0.847612 0.730169 0)
(-1.05804 0.679711 0)
(-1.21042 0.565354 0)
(-1.32278 0.437501 0)
(-1.40718 0.319829 0)
(-1.4697 0.219505 0)
(-1.51409 0.136067 0)
(-1.54291 0.0668042 0)
(-1.55775 0.00934372 0)
(-1.55986 -0.0369615 0)
(-1.54941 -0.0723435 0)
(-1.52529 -0.102137 0)
(-1.48775 -0.128465 0)
(-1.43622 -0.149054 0)
(-1.37497 -0.163093 0)
(-1.30848 -0.169295 0)
(-1.23773 -0.170426 0)
(-1.16558 -0.175003 0)
(-1.09307 -0.188819 0)
(-1.0188 -0.20328 0)
(-0.941333 -0.214945 0)
(-0.8634 -0.219566 0)
(-0.786507 -0.21914 0)
(-0.711262 -0.216745 0)
(-0.637254 -0.21455 0)
(-0.563658 -0.213143 0)
(-0.489819 -0.211603 0)
(-0.415882 -0.208067 0)
(-0.343294 -0.200918 0)
(-0.274161 -0.190281 0)
(-0.209758 -0.177551 0)
(-0.150532 -0.162646 0)
(-0.0974009 -0.14281 0)
(-0.0518226 -0.113828 0)
(-0.0143257 -0.0703039 0)
(0.0118963 -0.00749607 0)
(0.022174 0.0775157 0)
(0.0305912 0.202911 0)
(-0.315814 0.572845 0)
(-0.588624 0.853911 0)
(-0.849409 0.895101 0)
(-1.03667 0.800953 0)
(-1.17493 0.655595 0)
(-1.28013 0.50582 0)
(-1.36006 0.371308 0)
(-1.41902 0.257065 0)
(-1.46026 0.161769 0)
(-1.48663 0.082352 0)
(-1.5004 0.0157806 0)
(-1.50309 -0.039394 0)
(-1.49406 -0.0845274 0)
(-1.47344 -0.124045 0)
(-1.44159 -0.15938 0)
(-1.39668 -0.189278 0)
(-1.34052 -0.209388 0)
(-1.27524 -0.219456 0)
(-1.20323 -0.222695 0)
(-1.12666 -0.225834 0)
(-1.05438 -0.237157 0)
(-0.982703 -0.254969 0)
(-0.910983 -0.268542 0)
(-0.840363 -0.272678 0)
(-0.770625 -0.271193 0)
(-0.702993 -0.267695 0)
(-0.636911 -0.264909 0)
(-0.571148 -0.263611 0)
(-0.504528 -0.262538 0)
(-0.436555 -0.258923 0)
(-0.368559 -0.25043 0)
(-0.303349 -0.237326 0)
(-0.242508 -0.221165 0)
(-0.186414 -0.202293 0)
(-0.135761 -0.177577 0)
(-0.0920954 -0.143036 0)
(-0.0560049 -0.0937278 0)
(-0.0271253 -0.0223874 0)
(-0.012325 0.073668 0)
(0.00065633 0.207603 0)
(-0.3111 0.867374 0)
(-0.576814 1.06768 0)
(-0.817045 1.04677 0)
(-0.993584 0.913078 0)
(-1.12617 0.741034 0)
(-1.22784 0.571302 0)
(-1.30502 0.420608 0)
(-1.3616 0.292432 0)
(-1.40015 0.185218 0)
(-1.42355 0.096049 0)
(-1.4345 0.0211866 0)
(-1.43495 -0.0414277 0)
(-1.42593 -0.094735 0)
(-1.40821 -0.143011 0)
(-1.37992 -0.186584 0)
(-1.34015 -0.224191 0)
(-1.28886 -0.251914 0)
(-1.2253 -0.269628 0)
(-1.15442 -0.277585 0)
(-1.08078 -0.28219 0)
(-1.00664 -0.291082 0)
(-0.936525 -0.305406 0)
(-0.873502 -0.316289 0)
(-0.810765 -0.320158 0)
(-0.748183 -0.317688 0)
(-0.688335 -0.312783 0)
(-0.630637 -0.309253 0)
(-0.573381 -0.308206 0)
(-0.515072 -0.308251 0)
(-0.454414 -0.305955 0)
(-0.390928 -0.296439 0)
(-0.327832 -0.280563 0)
(-0.26825 -0.261848 0)
(-0.213459 -0.240397 0)
(-0.164094 -0.211368 0)
(-0.121397 -0.17125 0)
(-0.0865807 -0.116754 0)
(-0.0566484 -0.0414476 0)
(-0.0342468 0.0632133 0)
(-0.0148333 0.192505 0)
(-0.294442 1.1542 0)
(-0.543188 1.26893 0)
(-0.764965 1.18986 0)
(-0.930603 1.02074 0)
(-1.05588 0.823664 0)
(-1.15259 0.63411 0)
(-1.2289 0.466425 0)
(-1.288 0.324259 0)
(-1.32862 0.205837 0)
(-1.35202 0.107324 0)
(-1.36087 0.0239041 0)
(-1.3585 -0.0453931 0)
(-1.3481 -0.103459 0)
(-1.33085 -0.157143 0)
(-1.30559 -0.208819 0)
(-1.27191 -0.256145 0)
(-1.22521 -0.294293 0)
(-1.16474 -0.318156 0)
(-1.09559 -0.328326 0)
(-1.0212 -0.335098 0)
(-0.953525 -0.342785 0)
(-0.894633 -0.351571 0)
(-0.837131 -0.359728 0)
(-0.778305 -0.363101 0)
(-0.721335 -0.359078 0)
(-0.668781 -0.35199 0)
(-0.619514 -0.347358 0)
(-0.570889 -0.346473 0)
(-0.521209 -0.34769 0)
(-0.469789 -0.347725 0)
(-0.414093 -0.340922 0)
(-0.351877 -0.323131 0)
(-0.288986 -0.301475 0)
(-0.232314 -0.276123 0)
(-0.182477 -0.24429 0)
(-0.139775 -0.199377 0)
(-0.105626 -0.139391 0)
(-0.0770289 -0.062645 0)
(-0.0483667 0.0419756 0)
(-0.0169991 0.171479 0)
(-0.272697 1.42286 0)
(-0.496858 1.45308 0)
(-0.694614 1.32144 0)
(-0.841518 1.12036 0)
(-0.951437 0.899654 0)
(-1.0375 0.691683 0)
(-1.11394 0.511333 0)
(-1.18313 0.35615 0)
(-1.23594 0.222646 0)
(-1.26898 0.112348 0)
(-1.28017 0.021914 0)
(-1.27557 -0.0527831 0)
(-1.26292 -0.114705 0)
(-1.24609 -0.172013 0)
(-1.22364 -0.227608 0)
(-1.19329 -0.281063 0)
(-1.15286 -0.329613 0)
(-1.10064 -0.365678 0)
(-1.03344 -0.381562 0)
(-0.965935 -0.383174 0)
(-0.908676 -0.384418 0)
(-0.855419 -0.391064 0)
(-0.800459 -0.400312 0)
(-0.744065 -0.403362 0)
(-0.691303 -0.396259 0)
(-0.645571 -0.385534 0)
(-0.604505 -0.379327 0)
(-0.564029 -0.37864 0)
(-0.522204 -0.380816 0)
(-0.478657 -0.382859 0)
(-0.432772 -0.381329 0)
(-0.378252 -0.37067 0)
(-0.313786 -0.346429 0)
(-0.24999 -0.314916 0)
(-0.19406 -0.276209 0)
(-0.148702 -0.227009 0)
(-0.114235 -0.161538 0)
(-0.0894978 -0.0819982 0)
(-0.0654547 0.0164363 0)
(-0.0281832 0.15186 0)
(-0.249221 1.6662 0)
(-0.441659 1.6135 0)
(-0.604417 1.43384 0)
(-0.721297 1.20299 0)
(-0.806242 0.95865 0)
(-0.88006 0.73949 0)
(-0.952725 0.563321 0)
(-1.02699 0.409493 0)
(-1.1007 0.264611 0)
(-1.1621 0.140537 0)
(-1.18097 0.0291433 0)
(-1.18604 -0.0591905 0)
(-1.17279 -0.126286 0)
(-1.15543 -0.187287 0)
(-1.13554 -0.246467 0)
(-1.11053 -0.304463 0)
(-1.0777 -0.358335 0)
(-1.03428 -0.402278 0)
(-0.980494 -0.42465 0)
(-0.922402 -0.423642 0)
(-0.865532 -0.421964 0)
(-0.813168 -0.429577 0)
(-0.761277 -0.439837 0)
(-0.707771 -0.441806 0)
(-0.659113 -0.429828 0)
(-0.619985 -0.413802 0)
(-0.586555 -0.405645 0)
(-0.553201 -0.405457 0)
(-0.517812 -0.408879 0)
(-0.480126 -0.412505 0)
(-0.439794 -0.414028 0)
(-0.395435 -0.410479 0)
(-0.342241 -0.394903 0)
(-0.278254 -0.36379 0)
(-0.210605 -0.315031 0)
(-0.153727 -0.254291 0)
(-0.114354 -0.182171 0)
(-0.0917846 -0.0977801 0)
(-0.0778148 -0.00599552 0)
(-0.0496986 0.10717 0)
(-0.229517 1.88626 0)
(-0.381517 1.74084 0)
(-0.498462 1.51844 0)
(-0.576214 1.26355 0)
(-0.632354 1.00783 0)
(-0.704317 0.79124 0)
(-0.767421 0.623061 0)
(-0.800632 0.461394 0)
(-0.841398 0.323291 0)
(-0.90255 0.195462 0)
(-1.00239 0.0544536 0)
(-1.08144 -0.051252 0)
(-1.07627 -0.127891 0)
(-1.06068 -0.197271 0)
(-1.04326 -0.26186 0)
(-1.02437 -0.323632 0)
(-1.00074 -0.382325 0)
(-0.970264 -0.432061 0)
(-0.931292 -0.46004 0)
(-0.877865 -0.462235 0)
(-0.816563 -0.457641 0)
(-0.764921 -0.464044 0)
(-0.717768 -0.476901 0)
(-0.670155 -0.477719 0)
(-0.627138 -0.459762 0)
(-0.593854 -0.437668 0)
(-0.56617 -0.427768 0)
(-0.538416 -0.42818 0)
(-0.508239 -0.433049 0)
(-0.475625 -0.438518 0)
(-0.440018 -0.441993 0)
(-0.400937 -0.440671 0)
(-0.358028 -0.431881 0)
(-0.307732 -0.410562 0)
(-0.242814 -0.370085 0)
(-0.166366 -0.292434 0)
(-0.110509 -0.200916 0)
(-0.0825524 -0.10897 0)
(-0.074061 -0.0229653 0)
(-0.0546095 0.0611973 0)
(0.0831373 -0.165302 0)
(0.146215 -0.104722 0)
(0.0997448 -0.206406 0)
(0.156558 -0.161474 0)
(0.0913247 -0.245591 0)
(0.133505 -0.200991 0)
(0.0630093 -0.27506 0)
(0.0900839 -0.22285 0)
(0.0208028 -0.29224 0)
(0.0383199 -0.234016 0)
(-0.0281005 -0.300736 0)
(-0.0111727 -0.239689 0)
(-0.0828472 -0.307003 0)
(0.198812 -0.652188 0)
(-0.0869897 -0.565222 0)
(0.221276 -0.776496 0)
(-0.0145761 -0.798735 0)
(0.158462 -0.8724 0)
(-0.0347075 -0.928821 0)
(0.0307684 -0.913131 0)
(-0.145054 -0.953068 0)
(-0.389469 -1.00721 0)
(-0.66452 -1.06304 0)
(-0.858651 -1.07971 0)
(-0.93091 -1.0408 0)
(-0.886482 -0.922975 0)
(-0.728454 -0.740299 0)
(-0.551292 -0.440814 0)
(-0.475768 -0.30047 0)
(-0.443285 -0.255314 0)
(-0.421288 -0.230311 0)
(-0.403484 -0.217038 0)
(-0.383181 -0.209144 0)
(-0.366549 -0.201641 0)
(-0.353498 -0.195714 0)
(-0.202538 -0.131585 0)
(-0.0764104 -0.00235254 0)
(0.0526758 0.095123 0)
(0.160563 0.161065 0)
(0.24008 0.206821 0)
(0.295474 0.238885 0)
(0.332024 0.259569 0)
(0.35342 0.271316 0)
(0.250456 -0.0857999 0)
(0.325824 -0.047912 0)
(0.44768 -0.0239546 0)
(-0.0196998 0.420205 0)
(0.219768 -0.119108 0)
(0.247003 -0.0442085 0)
(0.240315 0.101027 0)
(-0.0596648 0.622735 0)
(0.17117 -0.14347 0)
(0.163534 -0.0298737 0)
(0.110321 0.207551 0)
(-0.0928698 0.783556 0)
(0.121234 -0.155386 0)
(0.0844388 -0.00399124 0)
(0.0232615 0.314034 0)
(-0.110815 0.920633 0)
(0.110853 -0.170987 0)
(0.022281 0.0705498 0)
(-0.0569846 0.405773 0)
(-0.120118 1.00117 0)
(0.862579 -0.304719 0)
(0.0157051 0.287182 0)
(-0.120285 0.516886 0)
(-0.132489 1.04488 0)
(0.731686 -0.444837 0)
(0.0822656 0.581582 0)
(-0.139371 0.692734 0)
(-0.151554 1.06914 0)
(0.500831 -0.399706 0)
(0.0169617 0.792991 0)
(-0.118697 0.879438 0)
(-0.157343 1.08084 0)
(0.262415 -0.315315 0)
(-0.0477759 0.92047 0)
(-0.110991 0.976179 0)
(-0.144054 1.08342 0)
(0.0926776 -0.244716 0)
(-0.0744631 0.998495 0)
(-0.0993086 1.01846 0)
(-0.121211 1.07666 0)
(-0.041119 -0.240774 0)
(-0.0652135 1.02821 0)
(-0.0797525 1.03873 0)
(-0.0956436 1.06651 0)
(-0.243949 -0.315971 0)
(-0.0407074 1.002 0)
(-0.0513771 1.05298 0)
(-0.0669504 1.06038 0)
(-0.564363 -0.480912 0)
(-0.0317442 0.885702 0)
(-0.0156435 1.0722 0)
(-0.028755 1.06282 0)
(-0.812757 -0.678236 0)
(-0.312696 0.33105 0)
(0.026089 1.08298 0)
(0.0255156 1.07196 0)
(-0.910234 -0.811964 0)
(-0.583534 -0.115437 0)
(-0.0373268 0.691966 0)
(0.115176 1.08654 0)
(-0.926469 -0.89562 0)
(-0.74222 -0.443449 0)
(-0.33868 0.212992 0)
(0.206656 1.01117 0)
(-0.928202 -0.909742 0)
(-0.853891 -0.680779 0)
(-0.536892 -0.140427 0)
(-0.0733003 0.557363 0)
(-0.896517 -0.811866 0)
(-0.943119 -0.787357 0)
(-0.804702 -0.425222 0)
(-0.442384 0.188916 0)
(-0.754728 -0.617886 0)
(-0.956316 -0.755471 0)
(-0.958953 -0.584422 0)
(-0.772023 -0.194034 0)
(-0.497079 -0.314478 0)
(-0.866457 -0.59304 0)
(-0.970008 -0.577465 0)
(-0.968742 -0.378414 0)
(-0.426064 -0.199862 0)
(-0.67174 -0.364424 0)
(-0.873691 -0.453197 0)
(-0.96554 -0.37327 0)
(-0.40392 -0.170827 0)
(-0.40762 -0.141486 0)
(-0.702494 -0.262763 0)
(-0.823461 -0.266586 0)
(-0.384005 -0.162028 0)
(-0.381789 -0.119138 0)
(-0.381882 -0.0867328 0)
(-0.625147 -0.128274 0)
(-0.360624 -0.157487 0)
(-0.356875 -0.11252 0)
(-0.351609 -0.0719907 0)
(-0.338478 -0.0390374 0)
(-0.342515 -0.153364 0)
(-0.332429 -0.110279 0)
(-0.322175 -0.069115 0)
(-0.31215 -0.0317266 0)
(-0.33689 -0.160516 0)
(-0.312584 -0.10873 0)
(-0.296355 -0.0683265 0)
(-0.28192 -0.0314895 0)
(-0.168412 -0.0864914 0)
(-0.31805 -0.132957 0)
(-0.278639 -0.0737744 0)
(-0.254022 -0.0341596 0)
(-0.0244876 0.0316543 0)
(-0.103285 -0.0572526 0)
(-0.207138 -0.133525 0)
(-0.248259 -0.0503386 0)
(0.101864 0.11041 0)
(0.034872 0.0498698 0)
(-0.0415803 -0.0218081 0)
(-0.0963685 -0.0719007 0)
(0.197215 0.165829 0)
(0.144997 0.120396 0)
(0.0809601 0.0740602 0)
(0.018521 0.0358843 0)
(0.266166 0.206488 0)
(0.22911 0.171044 0)
(0.183219 0.135434 0)
(0.13464 0.103833 0)
(0.313383 0.23481 0)
(0.28881 0.206547 0)
(0.258291 0.176254 0)
(0.224576 0.146197 0)
(0.342598 0.252761 0)
(0.326967 0.230369 0)
(0.306675 0.204452 0)
(0.283104 0.175934 0)
(-0.296912 2.0296 0)
(-0.325038 1.82242 0)
(-0.389645 1.56936 0)
(-0.425769 1.30461 0)
(-0.458853 1.06247 0)
(-0.56278 0.8635 0)
(-0.599342 0.651862 0)
(-0.602885 0.480351 0)
(-0.590326 0.350827 0)
(-0.593985 0.229591 0)
(-0.606356 0.124253 0)
(-0.703971 0.0134383 0)
(-0.959567 -0.118389 0)
(-0.959301 -0.197464 0)
(-0.94811 -0.269206 0)
(-0.933622 -0.336611 0)
(-0.917995 -0.398852 0)
(-0.898437 -0.453867 0)
(-0.870091 -0.493353 0)
(-0.824838 -0.506264 0)
(-0.763874 -0.499988 0)
(-0.711503 -0.495408 0)
(-0.6706 -0.507097 0)
(-0.633728 -0.508182 0)
(-0.599992 -0.484026 0)
(-0.569076 -0.457373 0)
(-0.542125 -0.44766 0)
(-0.517639 -0.448645 0)
(-0.492179 -0.454188 0)
(-0.464884 -0.461323 0)
(-0.434642 -0.467298 0)
(-0.400841 -0.46817 0)
(-0.364273 -0.460949 0)
(-0.323529 -0.446244 0)
(-0.274008 -0.418272 0)
(-0.203226 -0.359495 0)
(-0.112111 -0.233976 0)
(-0.0647584 -0.114567 0)
(-0.0536451 -0.0335048 0)
(-0.0485824 0.0185641 0)
(-0.292614 2.05226 0)
(-0.244463 1.85537 0)
(-0.283741 1.59219 0)
(-0.293586 1.33147 0)
(-0.343569 1.14304 0)
(-0.476251 0.9085 0)
(-0.476627 0.648831 0)
(-0.439607 0.463414 0)
(-0.41532 0.335684 0)
(-0.394422 0.229604 0)
(-0.378458 0.155803 0)
(-0.375596 0.11445 0)
(-0.490635 0.0192055 0)
(-0.829683 -0.186962 0)
(-0.849424 -0.269119 0)
(-0.839938 -0.341787 0)
(-0.827976 -0.409201 0)
(-0.815209 -0.468349 0)
(-0.794912 -0.517247 0)
(-0.759623 -0.546639 0)
(-0.711038 -0.54325 0)
(-0.659302 -0.52857 0)
(-0.625662 -0.5299 0)
(-0.60088 -0.531526 0)
(-0.577859 -0.506366 0)
(-0.539749 -0.473407 0)
(-0.510041 -0.463614 0)
(-0.486539 -0.466613 0)
(-0.466205 -0.472399 0)
(-0.445786 -0.480233 0)
(-0.422492 -0.48864 0)
(-0.395305 -0.492111 0)
(-0.366061 -0.486905 0)
(-0.334022 -0.475081 0)
(-0.293939 -0.454767 0)
(-0.239331 -0.415766 0)
(-0.149584 -0.323818 0)
(-0.0444512 -0.129372 0)
(-0.0205537 -0.0347261 0)
(-0.0268678 -0.0197608 0)
(-0.243722 2.03561 0)
(-0.152601 1.8571 0)
(-0.182886 1.60272 0)
(-0.18456 1.36236 0)
(-0.306575 1.20317 0)
(-0.379847 0.916832 0)
(-0.360256 0.625227 0)
(-0.342815 0.433391 0)
(-0.288879 0.295077 0)
(-0.256164 0.209567 0)
(-0.234499 0.156477 0)
(-0.221279 0.139441 0)
(-0.213297 0.134956 0)
(-0.37857 0.055999 0)
(-0.725656 -0.250504 0)
(-0.743923 -0.341567 0)
(-0.735718 -0.414171 0)
(-0.726319 -0.478525 0)
(-0.713702 -0.531641 0)
(-0.690359 -0.571203 0)
(-0.656656 -0.580353 0)
(-0.611727 -0.55807 0)
(-0.582222 -0.547011 0)
(-0.564927 -0.548089 0)
(-0.544259 -0.532075 0)
(-0.496037 -0.50232 0)
(-0.463075 -0.478501 0)
(-0.442617 -0.478101 0)
(-0.427279 -0.485549 0)
(-0.415539 -0.493991 0)
(-0.401685 -0.504611 0)
(-0.383302 -0.510507 0)
(-0.36384 -0.50634 0)
(-0.343203 -0.498502 0)
(-0.314198 -0.485556 0)
(-0.270651 -0.458244 0)
(-0.202894 -0.393375 0)
(-0.0870279 -0.215534 0)
(0.017184 -0.0311902 0)
(0.0291706 -0.029471 0)
(-0.187428 2.00469 0)
(-0.0706688 1.84493 0)
(-0.0967799 1.60854 0)
(-0.0986316 1.43446 0)
(-0.249923 1.25411 0)
(-0.250074 0.92559 0)
(-0.233245 0.619058 0)
(-0.236868 0.410009 0)
(-0.198124 0.254597 0)
(-0.157118 0.163237 0)
(-0.14928 0.143743 0)
(-0.14022 0.147265 0)
(-0.135249 0.164419 0)
(-0.149152 0.158042 0)
(-0.457872 -0.0388416 0)
(-0.63954 -0.329339 0)
(-0.644591 -0.414549 0)
(-0.638488 -0.483965 0)
(-0.631567 -0.542086 0)
(-0.61845 -0.585552 0)
(-0.594958 -0.60432 0)
(-0.562951 -0.586042 0)
(-0.530559 -0.562893 0)
(-0.512028 -0.561672 0)
(-0.475337 -0.557507 0)
(-0.430281 -0.536752 0)
(-0.391264 -0.509445 0)
(-0.379455 -0.484711 0)
(-0.375499 -0.489401 0)
(-0.372364 -0.500139 0)
(-0.369933 -0.513394 0)
(-0.363723 -0.52095 0)
(-0.357373 -0.515843 0)
(-0.351703 -0.511969 0)
(-0.337038 -0.507841 0)
(-0.307832 -0.494326 0)
(-0.262007 -0.451122 0)
(-0.161305 -0.328964 0)
(0.0221029 -0.0760706 0)
(0.109586 0.00403875 0)
(-0.140986 1.94747 0)
(-0.00538336 1.82365 0)
(-0.0294105 1.61312 0)
(-0.0271007 1.49785 0)
(-0.118752 1.29088 0)
(-0.100384 0.925926 0)
(-0.0809861 0.612943 0)
(-0.0587686 0.388297 0)
(-0.0273066 0.240667 0)
(-0.0304724 0.145203 0)
(-0.0877858 0.149413 0)
(-0.0929722 0.152021 0)
(-0.105148 0.167135 0)
(-0.104842 0.218596 0)
(-0.296053 0.186807 0)
(-0.499481 -0.252876 0)
(-0.552649 -0.407524 0)
(-0.553256 -0.484286 0)
(-0.547902 -0.547547 0)
(-0.541538 -0.596524 0)
(-0.526713 -0.621569 0)
(-0.498911 -0.611916 0)
(-0.459622 -0.58756 0)
(-0.425022 -0.586792 0)
(-0.386979 -0.585702 0)
(-0.352368 -0.559742 0)
(-0.309028 -0.527856 0)
(-0.281842 -0.496495 0)
(-0.303421 -0.482063 0)
(-0.317893 -0.49463 0)
(-0.324095 -0.511954 0)
(-0.335787 -0.519391 0)
(-0.34849 -0.511442 0)
(-0.360683 -0.512763 0)
(-0.360684 -0.518162 0)
(-0.347186 -0.518333 0)
(-0.316333 -0.500051 0)
(-0.247812 -0.42727 0)
(-0.115569 -0.21001 0)
(0.118983 0.0460385 0)
(-0.107923 1.85844 0)
(0.0450222 1.79096 0)
(0.0284204 1.61497 0)
(0.0399832 1.51412 0)
(0.0170738 1.30272 0)
(0.0259907 0.922579 0)
(0.0691116 0.593686 0)
(0.104014 0.373113 0)
(0.127295 0.24343 0)
(0.134031 0.17083 0)
(0.0790188 0.185253 0)
(-0.0385102 0.157818 0)
(-0.0904484 0.162899 0)
(-0.102587 0.322903 0)
(-0.198482 0.292593 0)
(-0.334538 -0.120489 0)
(-0.450751 -0.385904 0)
(-0.467079 -0.479815 0)
(-0.46342 -0.549291 0)
(-0.458631 -0.604723 0)
(-0.446341 -0.638569 0)
(-0.420508 -0.638326 0)
(-0.378021 -0.615845 0)
(-0.337192 -0.617867 0)
(-0.302922 -0.622346 0)
(-0.266454 -0.599709 0)
(-0.223975 -0.550525 0)
(-0.190118 -0.499815 0)
(-0.193277 -0.463927 0)
(-0.244794 -0.473167 0)
(-0.258838 -0.495892 0)
(-0.296151 -0.506506 0)
(-0.343253 -0.493726 0)
(-0.374284 -0.501593 0)
(-0.384784 -0.516763 0)
(-0.386726 -0.527365 0)
(-0.377382 -0.528616 0)
(-0.339721 -0.497229 0)
(-0.222914 -0.350538 0)
(0.0118223 0.016248 0)
(-0.0840942 1.74185 0)
(0.0828205 1.74584 0)
(0.0836161 1.60709 0)
(0.103803 1.50875 0)
(0.127392 1.29695 0)
(0.127818 0.903681 0)
(0.193235 0.542892 0)
(0.222187 0.356584 0)
(0.229029 0.246457 0)
(0.230992 0.187445 0)
(0.232183 0.18203 0)
(0.164864 0.245669 0)
(0.0566143 0.247713 0)
(-0.0571342 0.360679 0)
(-0.110689 0.32028 0)
(-0.209201 -0.00763185 0)
(-0.335401 -0.332503 0)
(-0.378001 -0.467565 0)
(-0.378103 -0.549128 0)
(-0.37293 -0.609861 0)
(-0.364192 -0.651908 0)
(-0.341724 -0.667521 0)
(-0.306287 -0.643739 0)
(-0.270834 -0.637782 0)
(-0.240343 -0.644065 0)
(-0.206691 -0.63202 0)
(-0.162098 -0.595172 0)
(-0.117056 -0.523337 0)
(-0.0956668 -0.449407 0)
(-0.135285 -0.43071 0)
(-0.166357 -0.472336 0)
(-0.221869 -0.480763 0)
(-0.35207 -0.456648 0)
(-0.390393 -0.487024 0)
(-0.40619 -0.507437 0)
(-0.421695 -0.521055 0)
(-0.438205 -0.535877 0)
(-0.425018 -0.546379 0)
(-0.31891 -0.458997 0)
(-0.130579 -0.0838532 0)
(-0.0648672 1.61009 0)
(0.110391 1.68526 0)
(0.136361 1.5854 0)
(0.167509 1.48875 0)
(0.22165 1.28389 0)
(0.240074 0.879377 0)
(0.281713 0.497159 0)
(0.299667 0.343337 0)
(0.295498 0.248459 0)
(0.288 0.195283 0)
(0.285724 0.183071 0)
(0.290257 0.34731 0)
(0.162755 0.393304 0)
(0.00848101 0.407716 0)
(-0.040504 0.355121 0)
(-0.129223 0.0753231 0)
(-0.25288 -0.255579 0)
(-0.291856 -0.451223 0)
(-0.294135 -0.547743 0)
(-0.291638 -0.614128 0)
(-0.287214 -0.660287 0)
(-0.271532 -0.684867 0)
(-0.248769 -0.675999 0)
(-0.214133 -0.661168 0)
(-0.18539 -0.663727 0)
(-0.15722 -0.652442 0)
(-0.123704 -0.620265 0)
(-0.0840022 -0.562101 0)
(-0.0426245 -0.468073 0)
(-0.0195561 -0.41073 0)
(-0.0624216 -0.445698 0)
(-0.0656352 -0.403338 0)
(-0.350835 -0.381273 0)
(-0.389657 -0.473881 0)
(-0.416708 -0.497877 0)
(-0.447885 -0.507527 0)
(-0.496557 -0.529686 0)
(-0.510736 -0.586293 0)
(-0.401852 -0.605584 0)
(-0.154528 -0.337943 0)
(-0.050809 1.47828 0)
(0.126353 1.60703 0)
(0.182941 1.54496 0)
(0.228099 1.45137 0)
(0.307007 1.2567 0)
(0.362341 0.855171 0)
(0.359224 0.479116 0)
(0.348165 0.348748 0)
(0.340235 0.258371 0)
(0.32633 0.202269 0)
(0.31453 0.180618 0)
(0.288109 0.370184 0)
(0.197486 0.49809 0)
(0.0694942 0.487562 0)
(0.00359467 0.403728 0)
(-0.0655242 0.145294 0)
(-0.170776 -0.177806 0)
(-0.216483 -0.450681 0)
(-0.21752 -0.545914 0)
(-0.218002 -0.615761 0)
(-0.216203 -0.665776 0)
(-0.208813 -0.696049 0)
(-0.192134 -0.69822 0)
(-0.162503 -0.686309 0)
(-0.139618 -0.685426 0)
(-0.117897 -0.674467 0)
(-0.0933565 -0.640226 0)
(-0.0662219 -0.584439 0)
(-0.028422 -0.507261 0)
(0.013607 -0.436023 0)
(0.00503433 -0.419901 0)
(0.0149068 -0.249864 0)
(-0.152402 -0.14568 0)
(-0.342662 -0.457214 0)
(-0.412815 -0.480058 0)
(-0.467364 -0.480686 0)
(-0.564529 -0.506856 0)
(-0.583636 -0.634418 0)
(-0.445495 -0.762789 0)
(-0.183953 -0.52062 0)
(-0.0422007 1.35785 0)
(0.128205 1.51261 0)
(0.214463 1.48492 0)
(0.274055 1.39767 0)
(0.369266 1.21604 0)
(0.485156 0.835207 0)
(0.415759 0.479629 0)
(0.381668 0.369105 0)
(0.373004 0.275399 0)
(0.354047 0.215614 0)
(0.336685 0.19288 0)
(0.256857 0.424926 0)
(0.194046 0.577756 0)
(0.106756 0.571704 0)
(0.0490625 0.448825 0)
(0.00271334 0.199633 0)
(-0.0590556 -0.112223 0)
(-0.142898 -0.442721 0)
(-0.149254 -0.543545 0)
(-0.152096 -0.614634 0)
(-0.1518 -0.667725 0)
(-0.150871 -0.702922 0)
(-0.140553 -0.712059 0)
(-0.118837 -0.705185 0)
(-0.104052 -0.701259 0)
(-0.0885033 -0.690639 0)
(-0.0726079 -0.657092 0)
(-0.0614209 -0.598003 0)
(-0.0411599 -0.527233 0)
(-0.0189364 -0.459506 0)
(-0.0158931 -0.405741 0)
(-0.0358611 -0.190478 0)
(-0.0909672 -0.105647 0)
(-0.143518 -0.231323 0)
(-0.40523 -0.44739 0)
(-0.493826 -0.434661 0)
(-0.642792 -0.458459 0)
(-0.600519 -0.718847 0)
(-0.461104 -0.989504 0)
(-0.239032 -0.786609 0)
(-0.0372729 1.25675 0)
(0.113307 1.40905 0)
(0.22103 1.4096 0)
(0.293619 1.32537 0)
(0.413686 1.15413 0)
(0.574031 0.83262 0)
(0.428091 0.535352 0)
(0.409484 0.394918 0)
(0.398129 0.295749 0)
(0.373395 0.235054 0)
(0.337081 0.225043 0)
(0.220912 0.479342 0)
(0.181403 0.632492 0)
(0.127415 0.618568 0)
(0.0916569 0.479333 0)
(0.0652719 0.234956 0)
(0.0286821 -0.0638401 0)
(-0.0371202 -0.370829 0)
(-0.08336 -0.540459 0)
(-0.0904122 -0.611202 0)
(-0.0912222 -0.666266 0)
(-0.0951155 -0.70693 0)
(-0.0942583 -0.718596 0)
(-0.0817947 -0.713193 0)
(-0.075258 -0.709841 0)
(-0.0679278 -0.698364 0)
(-0.0645299 -0.665682 0)
(-0.0691292 -0.608929 0)
(-0.0728379 -0.534988 0)
(-0.0607456 -0.466199 0)
(-0.0656613 -0.395878 0)
(-0.14878 -0.187865 0)
(-0.141876 -0.103543 0)
(-0.228214 -0.0652748 0)
(-0.583131 -0.133292 0)
(-0.911133 -0.167515 0)
(-1.08622 -0.331902 0)
(-0.916281 -0.705851 0)
(-0.523211 -1.15328 0)
(-0.268934 -1.11044 0)
(-0.0284491 1.17991 0)
(0.0898096 1.30738 0)
(0.206676 1.32523 0)
(0.285463 1.23523 0)
(0.400714 1.07289 0)
(0.500463 0.778515 0)
(0.433738 0.56846 0)
(0.431846 0.417818 0)
(0.416333 0.318416 0)
(0.38906 0.265246 0)
(0.309346 0.276076 0)
(0.198057 0.536893 0)
(0.169686 0.670186 0)
(0.141334 0.643918 0)
(0.126634 0.494877 0)
(0.114161 0.254825 0)
(0.0879308 -0.0320412 0)
(0.0413471 -0.320934 0)
(-0.0163163 -0.524306 0)
(-0.0286671 -0.601175 0)
(-0.0306911 -0.661518 0)
(-0.0352901 -0.704904 0)
(-0.0442883 -0.720696 0)
(-0.0483887 -0.71294 0)
(-0.0488718 -0.71052 0)
(-0.0527432 -0.701445 0)
(-0.0614518 -0.670383 0)
(-0.083809 -0.607601 0)
(-0.125291 -0.533021 0)
(-0.113688 -0.468498 0)
(-0.18325 -0.318576 0)
(-0.24964 -0.165343 0)
(-0.252776 -0.0756854 0)
(-0.384073 0.0599112 0)
(-0.598018 0.041022 0)
(-0.791393 -0.092138 0)
(-0.829606 -0.4112 0)
(-0.740062 -0.875246 0)
(-0.647463 -1.43959 0)
(0.107556 -1.4196 0)
(-0.00145671 1.1269 0)
(0.0827376 1.21629 0)
(0.197284 1.23908 0)
(0.286892 1.15397 0)
(0.36918 0.991739 0)
(0.44172 0.757978 0)
(0.450515 0.577118 0)
(0.449162 0.436447 0)
(0.431983 0.342959 0)
(0.405457 0.299182 0)
(0.279691 0.359861 0)
(0.192684 0.591655 0)
(0.163989 0.694916 0)
(0.15411 0.653053 0)
(0.155513 0.49885 0)
(0.15297 0.266182 0)
(0.133568 -0.00626641 0)
(0.100549 -0.279943 0)
(0.0466258 -0.509598 0)
(0.033933 -0.588646 0)
(0.0304563 -0.654453 0)
(0.0262742 -0.698277 0)
(0.0255129 -0.722077 0)
(-0.00205665 -0.703918 0)
(-0.0160572 -0.703352 0)
(-0.0408139 -0.69843 0)
(-0.0620193 -0.66393 0)
(-0.0534142 -0.533798 0)
(-0.106721 -0.515213 0)
(-0.155525 -0.425468 0)
(-0.227898 -0.277934 0)
(-0.296079 -0.119241 0)
(-0.353627 0.0133897 0)
(-0.427719 0.153255 0)
(-0.50358 0.145507 0)
(-0.551256 -0.0462698 0)
(-0.51578 -0.428681 0)
(-0.496653 -0.95515 0)
(-0.627984 -1.65777 0)
(0.504418 -1.6581 0)
(0.0549663 1.09317 0)
(0.114215 1.13913 0)
(0.216163 1.15379 0)
(0.315374 1.08239 0)
(0.396353 0.932334 0)
(0.450332 0.746547 0)
(0.469493 0.578111 0)
(0.470615 0.448067 0)
(0.452958 0.366051 0)
(0.422828 0.334786 0)
(0.278381 0.457661 0)
(0.192767 0.643402 0)
(0.166296 0.70953 0)
(0.168918 0.650558 0)
(0.182087 0.494141 0)
(0.187858 0.271338 0)
(0.17667 0.0143235 0)
(0.155049 -0.247285 0)
(0.107309 -0.497604 0)
(0.0921293 -0.58271 0)
(0.0890765 -0.648034 0)
(0.0834474 -0.691683 0)
(0.0848277 -0.718836 0)
(0.105737 -0.706224 0)
(0.0750756 -0.664702 0)
(-0.00751556 -0.687996 0)
(0.030957 -0.621529 0)
(-0.0349071 -0.529046 0)
(-0.0956314 -0.46099 0)
(-0.164777 -0.364626 0)
(-0.24205 -0.223249 0)
(-0.304369 -0.0711626 0)
(-0.35082 0.0659935 0)
(-0.378532 0.17522 0)
(-0.369075 0.151774 0)
(-0.331165 -0.0610846 0)
(-0.260528 -0.441092 0)
(-0.274552 -0.99795 0)
(-0.478585 -1.86544 0)
(0.710796 -1.80092 0)
(0.135123 1.07194 0)
(0.180947 1.07951 0)
(0.261931 1.07309 0)
(0.354561 1.00895 0)
(0.429804 0.880613 0)
(0.476127 0.720183 0)
(0.496168 0.57256 0)
(0.498013 0.458611 0)
(0.478031 0.387015 0)
(0.395345 0.396253 0)
(0.256412 0.557847 0)
(0.185945 0.68931 0)
(0.170496 0.715317 0)
(0.185738 0.638964 0)
(0.208466 0.482324 0)
(0.221349 0.270248 0)
(0.217618 0.0272697 0)
(0.202435 -0.223677 0)
(0.171236 -0.45916 0)
(0.144268 -0.580605 0)
(0.14177 -0.641313 0)
(0.133914 -0.685141 0)
(0.129651 -0.718807 0)
(0.134801 -0.737852 0)
(0.180799 -0.650337 0)
(0.287928 -0.600964 0)
(0.126208 -0.569307 0)
(0.00992765 -0.481744 0)
(-0.0742115 -0.398451 0)
(-0.156631 -0.297259 0)
(-0.231016 -0.168833 0)
(-0.284234 -0.0338189 0)
(-0.310311 0.0824739 0)
(-0.298183 0.155054 0)
(-0.241422 0.104191 0)
(-0.163213 -0.112355 0)
(-0.0825543 -0.475622 0)
(-0.0679068 -1.02215 0)
(-0.363726 -1.93533 0)
(0.812694 -1.77604 0)
(0.208952 1.04829 0)
(0.257829 1.04116 0)
(0.322761 1.00886 0)
(0.396924 0.943284 0)
(0.462228 0.833285 0)
(0.505399 0.697952 0)
(0.527758 0.569485 0)
(0.525824 0.469291 0)
(0.494488 0.429626 0)
(0.350538 0.503909 0)
(0.226379 0.644478 0)
(0.173784 0.721534 0)
(0.17559 0.709705 0)
(0.204034 0.618387 0)
(0.23523 0.464268 0)
(0.253449 0.263937 0)
(0.254017 0.0336697 0)
(0.241899 -0.207362 0)
(0.225166 -0.433548 0)
(0.190603 -0.579259 0)
(0.187644 -0.632774 0)
(0.177907 -0.677099 0)
(0.169838 -0.716206 0)
(0.166761 -0.747844 0)
(0.169983 -0.748969 0)
(0.229519 -0.556299 0)
(0.130482 -0.480531 0)
(0.0262727 -0.403666 0)
(-0.0607967 -0.324948 0)
(-0.141542 -0.231916 0)
(-0.206509 -0.120512 0)
(-0.245976 -0.0086612 0)
(-0.253113 0.0796475 0)
(-0.215641 0.112944 0)
(-0.139853 0.0355957 0)
(-0.0496988 -0.179139 0)
(0.0317101 -0.525477 0)
(0.0668899 -1.04659 0)
(-0.0600133 -1.89875 0)
(0.329534 -1.71749 0)
(0.243783 1.00859 0)
(0.321543 1.00686 0)
(0.382883 0.965994 0)
(0.441962 0.898926 0)
(0.498315 0.799614 0)
(0.540851 0.679717 0)
(0.56125 0.563286 0)
(0.540731 0.483692 0)
(0.449146 0.519793 0)
(0.290078 0.624838 0)
(0.186089 0.714175 0)
(0.158696 0.735697 0)
(0.180813 0.690059 0)
(0.22331 0.588524 0)
(0.262078 0.440857 0)
(0.283688 0.254199 0)