/*--------------------------------*- C++ -*----------------------------------*\
| =========                 |                                                 |
| \\      /  F ield         | OpenFOAM: The Open Source CFD Toolbox           |
|  \\    /   O peration     | Version:  5.0                                   |
|   \\  /    A nd           | Web:      www.OpenFOAM.org                      |
|    \\/     M anipulation  |                                                 |
\*---------------------------------------------------------------------------*/
FoamFile
{
    version     2.0;
    format      ascii;
    class       surfaceScalarField;
    location    "0.55";
    object      alphaPhi10;
}
// * * * * * * * * * * * * * * * * * * * * * * * * * * * * * * * * * * * * * //

dimensions      [0 3 -1 0 0 0 0];

internalField   nonuniform List<scalar> 
3782
(
5.29111e-17
4.96376e-17
1.04409e-16
7.24184e-17
2.05905e-16
9.31089e-17
3.95402e-16
9.28252e-17
7.00492e-16
3.19377e-17
1.10083e-15
-1.20918e-16
1.5184e-15
-3.55924e-16
1.87404e-15
-6.21585e-16
2.06066e-15
-8.74076e-16
2.09979e-15
-1.01282e-15
1.69107e-15
-8.76311e-16
1.3906e-15
-5.64082e-16
1.20395e-15
-3.17455e-16
1.07727e-15
-1.59261e-16
9.82698e-16
-1.73858e-17
8.81098e-16
1.34052e-16
7.52058e-16
2.81619e-16
5.65056e-16
4.01158e-16
3.23508e-16
4.35134e-16
1.32394e-16
3.64686e-16
2.95461e-17
2.44476e-16
-5.96879e-18
1.27247e-16
-7.23261e-18
4.67337e-17
-3.05361e-18
1.14733e-17
-9.39657e-19
2.11449e-18
-1.85128e-19
2.79372e-19
-3.14506e-20
1.20424e-20
-3.25995e-21
-4.47916e-21
-2.78244e-22
-9.94621e-22
-2.0862e-23
-1.14729e-22
-1.36625e-24
-9.81723e-24
-7.24716e-26
-7.08035e-25
-3.09822e-27
-4.02539e-26
-1.07705e-28
-1.81054e-27
-2.96517e-30
-6.73641e-29
-6.17934e-32
-2.04809e-30
-9.43098e-34
-4.81501e-32
-1.48607e-35
-8.45281e-34
-2.84425e-37
-1.89255e-35
-1.74775e-39
-3.35544e-37
-1.19915e-42
-1.74079e-39
-1.66149e-50
-1.23961e-42
-1.70259e-50
1.04644e-16
1.39486e-16
1.92453e-16
3.28259e-16
3.26321e-16
7.22029e-16
1.60184e-15
5.40119e-16
1.42997e-16
2.6982e-16
2.46676e-16
6.25963e-16
4.10691e-16
1.45608e-15
3.71269e-15
6.75424e-16
1.65326e-16
5.16644e-16
2.55906e-16
1.20179e-15
3.74122e-16
3.07223e-15
8.94365e-15
3.42703e-16
1.30059e-16
9.64915e-16
1.20287e-16
2.30533e-15
-1.97323e-16
6.7265e-15
1.69786e-14
-1.46196e-15
-3.65426e-17
1.70359e-15
-4.47783e-16
4.25987e-15
-2.25558e-15
1.38651e-14
2.37402e-14
-3.49353e-15
-3.90327e-16
2.78182e-15
-2.25705e-15
7.54066e-15
-4.76994e-15
2.36558e-14
2.92827e-14
-4.59086e-15
-1.05413e-15
4.1845e-15
-5.54756e-15
1.2931e-14
-7.65549e-15
3.34586e-14
3.27539e-14
-5.85978e-15
-2.22113e-15
5.86297e-15
-8.36917e-15
2.00586e-14
-9.71084e-15
3.80698e-14
3.42077e-14
-6.12572e-15
-3.88124e-15
7.50918e-15
-9.51697e-15
2.55324e-14
-8.98299e-15
4.07517e-14
3.61153e-14
-6.24187e-15
-4.83212e-15
8.22754e-15
-9.41872e-15
2.74288e-14
-8.35214e-15
4.29609e-14
3.60832e-14
-1.44061e-15
-4.27631e-15
7.49975e-15
-8.57139e-15
2.66817e-14
-6.96898e-15
4.46381e-14
3.46276e-14
4.55395e-16
-2.81999e-15
5.15935e-15
-6.67252e-15
2.19159e-14
-5.05241e-15
4.39015e-14
3.42415e-14
4.83831e-16
-1.18096e-15
3.52368e-15
-3.81558e-15
1.38351e-14
-3.16336e-15
3.7194e-14
3.40632e-14
-2.08079e-15
-2.77321e-16
2.83341e-15
-7.67415e-16
7.6578e-15
-4.47977e-16
2.3727e-14
3.35234e-14
-1.06105e-17
1.37222e-16
2.51774e-15
6.05795e-16
5.3875e-15
1.90275e-15
1.21709e-14
2.6644e-14
4.11332e-15
4.81967e-16
2.304e-15
1.16775e-15
4.70963e-15
2.54756e-15
8.15567e-15
1.64143e-14
4.92315e-15
8.23348e-16
2.04984e-15
1.72121e-15
4.2408e-15
3.03222e-15
7.22787e-15
1.14522e-14
4.70086e-15
1.13593e-15
1.72776e-15
2.3149e-15
3.70222e-15
3.95367e-15
6.51939e-15
1.01993e-14
5.86018e-15
1.33413e-15
1.235e-15
2.87185e-15
3.03095e-15
5.43907e-15
6.25314e-15
1.20907e-14
8.70257e-15
1.29788e-15
6.85784e-16
3.25512e-15
2.17718e-15
7.21004e-15
5.19047e-15
1.26534e-14
1.54016e-14
1.05279e-15
2.86697e-16
3.04947e-15
1.18299e-15
7.70002e-15
3.57813e-15
9.70172e-15
1.89138e-14
6.69824e-16
5.61098e-17
2.12207e-15
3.96554e-16
5.32297e-15
1.32265e-15
3.40854e-15
1.29839e-14
2.93586e-16
-1.42531e-17
1.04039e-15
3.82435e-17
2.6421e-15
3.00315e-16
9.64766e-16
5.85727e-15
9.27419e-17
-1.48496e-17
4.36324e-16
-3.60799e-17
1.39837e-15
-1.4753e-17
1.80369e-16
3.34655e-15
2.43908e-17
-6.91212e-18
1.50514e-16
-2.81754e-17
5.60672e-16
-6.2628e-17
-7.98068e-17
1.42576e-15
4.79844e-18
-1.91426e-18
3.73376e-17
-1.21557e-17
1.55224e-16
-4.17101e-17
-8.87853e-17
4.37705e-16
5.32839e-19
-4.48984e-19
7.01923e-18
-3.83029e-18
4.07235e-17
-1.63296e-17
-4.19058e-17
1.37112e-16
1.22117e-20
-5.65706e-20
7.2235e-19
-6.95295e-19
6.17739e-18
-4.14305e-18
-1.38808e-17
2.53476e-17
-1.20415e-20
-5.20239e-21
-4.22441e-20
-8.63484e-20
2.86182e-19
-6.89404e-19
-2.94259e-18
2.74535e-18
-2.16127e-21
-3.68053e-22
-2.51893e-20
-7.49902e-21
-1.11989e-19
-7.85929e-20
-4.29139e-19
-1.67089e-19
-2.06376e-22
-2.23053e-23
-3.65785e-21
-5.10199e-22
-2.83276e-20
-6.67048e-21
-4.56917e-20
-1.07694e-19
-1.47203e-23
-1.08851e-24
-3.33496e-22
-2.72467e-23
-3.57213e-21
-4.46518e-22
-3.8961e-21
-1.89822e-20
-7.85594e-25
-4.1152e-26
-2.17721e-23
-1.04785e-24
-3.14656e-22
-2.1937e-23
-2.60998e-22
-2.2314e-21
-3.00241e-26
-1.26838e-27
-9.49434e-25
-2.92271e-26
-1.92272e-23
-7.43289e-25
-1.27569e-23
-1.93948e-22
-8.97819e-28
-3.26718e-29
-2.74531e-26
-6.36447e-28
-7.66058e-25
-1.74315e-26
-4.33014e-25
-1.19031e-23
-2.29328e-29
-6.84311e-31
-5.72664e-28
-1.14155e-29
-1.95343e-26
-2.95487e-28
-9.8621e-27
-4.89637e-25
-5.01166e-31
-1.14935e-32
-9.60685e-30
-1.74644e-31
-3.23598e-28
-3.8706e-30
-1.4199e-28
-1.2722e-26
-9.40713e-33
-2.7583e-34
-1.44766e-31
-3.61835e-33
-3.77589e-30
-5.10757e-32
-2.00708e-30
-1.78112e-28
-2.97386e-34
-3.81391e-36
-3.49923e-33
-3.45694e-35
-5.25302e-32
-6.74838e-34
-3.14068e-32
-2.03699e-30
-2.97123e-36
-2.20578e-38
-3.59283e-35
-2.03383e-37
-7.5152e-34
-5.38534e-36
-3.70081e-34
-3.17009e-32
-1.44123e-38
-3.17806e-41
-2.40854e-37
-4.23139e-40
-5.86872e-36
-1.38385e-38
-1.85934e-36
-3.72544e-34
-2.33654e-41
-6.30016e-48
-4.05253e-40
-2.17093e-45
-1.26208e-38
-6.61374e-43
-2.86108e-40
-1.87109e-36
-6.31719e-48
-2.17725e-45
-6.63552e-43
-2.87571e-40
9.15448e-16
4.38993e-15
1.25675e-15
1.03207e-14
9.62362e-16
1.9454e-14
-4.98971e-16
2.2333e-14
-2.31352e-15
2.50467e-14
-3.93016e-15
2.72608e-14
-5.96226e-15
2.82305e-14
-8.26063e-15
2.98414e-14
-1.22485e-14
3.56098e-14
-1.76888e-14
3.82029e-14
-2.55649e-14
4.58802e-14
-2.80124e-14
4.98732e-14
-2.45373e-14
4.34376e-14
-2.32155e-14
6.08455e-14
-1.93427e-14
4.53157e-14
-2.01001e-14
3.22793e-14
-2.20497e-14
2.44748e-14
-2.78441e-14
2.17253e-14
-2.4273e-14
2.08744e-14
-2.25042e-14
1.58485e-14
-1.86217e-14
1.24105e-14
-2.45568e-14
2.18021e-14
-4.33192e-14
1.10429e-13
-1.16916e-13
6.97598e-13
-4.35917e-12
4.86911e-12
-2.96677e-11
2.58138e-11
-7.17088e-11
2.95723e-11
3.50576e-10
-5.50178e-10
4.7149e-09
-4.95623e-09
4.94274e-08
-4.93553e-08
3.79278e-07
-3.69981e-07
6.44648e-06
-6.68423e-06
3.87076e-05
-3.70163e-05
4.37423e-05
-4.10886e-05
4.30704e-05
-3.14022e-05
4.10955e-05
-1.79602e-05
3.7338e-05
-1.23534e-06
3.05532e-05
1.79297e-05
1.9132e-05
3.70921e-05
3.15045e-05
8.84883e-16
1.09661e-14
1.03645e-16
1.78619e-14
-1.57266e-15
2.39916e-14
-3.10937e-15
2.6731e-14
-5.11428e-15
2.60196e-14
-6.97645e-15
2.82621e-14
-1.11142e-14
3.44582e-14
-1.77816e-14
4.73798e-14
-2.5907e-14
6.0464e-14
-2.59855e-14
5.95802e-14
-2.70785e-14
5.49653e-14
-2.9666e-14
6.20011e-14
-3.32043e-14
6.00088e-14
-1.31789e-13
1.73774e-13
-8.34315e-13
6.03456e-13
-2.08445e-12
1.44713e-12
-9.47516e-13
3.01513e-12
-2.88333e-14
1.48806e-13
-2.54733e-14
1.63527e-14
-2.44272e-14
1.37244e-14
-4.40177e-14
3.45636e-14
-3.07648e-13
2.92032e-13
-1.86484e-12
1.57221e-12
-2.00701e-11
1.84412e-11
-1.44639e-10
1.20566e-10
1.94947e-10
-4.14579e-10
4.64227e-09
-4.89998e-09
3.92694e-08
-3.82592e-08
1.98563e-07
-1.73063e-07
9.86267e-07
-8.83634e-07
8.22993e-06
-9.01085e-06
4.12872e-05
-4.35269e-05
5.14153e-05
-4.73657e-05
5.08615e-05
-4.05397e-05
4.94409e-05
-2.99826e-05
4.72344e-05
-1.57544e-05
4.34892e-05
2.50956e-06
3.65436e-05
2.48746e-05
2.34665e-05
5.01687e-05
5.20767e-05
-7.48145e-16
1.76548e-14
-2.35616e-15
2.29471e-14
-3.79875e-15
2.59425e-14
-5.76334e-15
2.76725e-14
-9.41188e-15
2.87221e-14
-5.27502e-14
6.20489e-14
-5.09346e-14
1.72261e-13
-3.81777e-14
1.10112e-13
-3.43694e-14
7.40159e-14
-3.33437e-14
8.23779e-14
-4.88478e-14
7.79305e-14
-3.04444e-13
3.25487e-13
-4.61156e-12
4.37879e-12
-1.10795e-12
5.29081e-12
-5.03801e-12
7.67175e-12
-3.83776e-12
4.0554e-12
-1.59227e-13
1.77627e-12
-3.21922e-14
2.01453e-14
-3.19946e-14
1.51619e-14
-8.14088e-14
6.19663e-14
-9.27492e-13
8.75559e-13
-1.26797e-11
1.18946e-11
-1.56081e-11
5.57471e-11
-1.07544e-10
7.6943e-11
4.32119e-09
-4.63262e-09
4.64802e-08
-4.55547e-08
2.1999e-07
-1.89383e-07
7.00202e-07
-5.74259e-07
3.86344e-06
-3.88652e-06
2.3852e-05
-3.13018e-05
5.00147e-05
-5.01864e-05
5.71611e-05
-5.17727e-05
5.65107e-05
-4.67206e-05
5.50545e-05
-3.90815e-05
5.32436e-05
-2.81702e-05
5.09109e-05
-1.3422e-05
4.74477e-05
5.97226e-06
4.10849e-05
3.12366e-05
2.73022e-05
6.39508e-05
9.17112e-05
-2.79625e-15
2.25008e-14
-4.38458e-15
2.37173e-14
-6.19725e-15
3.02646e-14
-1.93555e-14
4.02511e-14
-1.65506e-14
5.19043e-13
-1.76179e-13
2.27673e-13
-5.16946e-14
4.62372e-13
-4.72571e-14
1.19834e-13
-4.74417e-14
9.09941e-14
-1.31202e-13
1.89324e-13
-3.42986e-12
3.38609e-12
-8.1086e-12
3.44875e-11
-2.19978e-11
4.28597e-11
-1.91383e-11
2.18344e-11
-5.22245e-12
1.33276e-11
-1.50365e-12
4.17097e-13
-1.42489e-13
2.43724e-13
-1.41027e-14
6.25813e-14
-1.18672e-13
1.18099e-13
-7.78849e-13
7.14981e-13
-1.54715e-11
3.6565e-12
3.64924e-11
3.53643e-11
1.35367e-09
-1.26207e-09
4.31186e-08
-4.29739e-08
2.46923e-07
-2.18679e-07
8.39927e-07
-6.92021e-07
3.75477e-06
-4.56633e-06
1.9743e-05
-2.94774e-05
4.58643e-05
-5.15e-05
5.70827e-05
-5.53937e-05
6.08822e-05
-5.3969e-05
5.99589e-05
-5.07898e-05
5.83928e-05
-4.51239e-05
5.63703e-05
-3.70797e-05
5.37367e-05
-2.55333e-05
5.03701e-05
-1.00544e-05
4.60211e-05
1.03209e-05
3.91098e-05
2.92501e-05
2.70327e-05
7.60271e-05
0.000130301
-4.73733e-15
2.39459e-14
-8.5479e-15
2.56293e-14
-1.04768e-13
1.29264e-13
-1.15433e-12
3.51754e-12
-2.10892e-12
5.303e-12
-3.92195e-13
2.79443e-12
-8.438e-14
1.56267e-13
-9.55289e-14
1.36687e-13
-4.90009e-13
5.07571e-13
-6.73122e-12
6.18035e-12
-3.23154e-11
3.91437e-11
-6.86537e-11
9.10954e-11
-4.7739e-11
4.64407e-11
-1.62776e-11
1.00954e-11
-3.69801e-13
1.71335e-12
-2.16255e-13
1.67847e-13
-1.29825e-13
1.04921e-13
-4.47932e-13
6.98797e-13
-1.2686e-12
8.06876e-13
-7.17133e-13
-4.60657e-12
1.63514e-11
-4.0387e-11
5.52888e-09
-5.50177e-09
1.28578e-07
-1.23769e-07
8.71056e-07
-8.17314e-07
5.02599e-06
-6.78779e-06
2.42418e-05
-3.48911e-05
4.86482e-05
-5.34748e-05
5.6208e-05
-5.71472e-05
6.17764e-05
-5.6788e-05
6.19813e-05
-5.52215e-05
6.12449e-05
-5.29739e-05
5.99853e-05
-4.9509e-05
5.7809e-05
-4.28877e-05
5.4416e-05
-3.33708e-05
4.59614e-05
-1.56907e-05
3.32696e-05
-1.55316e-06
1.8737e-05
4.2339e-06
1.43472e-05
1.25079e-06
1.88411e-05
2.60467e-05
0.000142119
-7.40516e-15
2.39146e-14
-2.23351e-14
3.86804e-14
-1.19599e-12
1.49219e-12
-1.99016e-12
5.29049e-12
-1.35431e-12
5.74085e-12
-1.05693e-13
2.6936e-12
-1.07728e-13
1.46772e-13
-3.44033e-13
3.75605e-13
-3.29085e-12
3.44711e-12
-6.92818e-11
6.14098e-11
-6.72695e-11
9.69387e-11
-4.27749e-11
5.92561e-11
-1.13955e-11
8.44021e-12
-1.84133e-12
1.99102e-12
-1.58819e-12
1.0927e-12
-7.95988e-12
6.62445e-12
-1.26848e-10
1.18964e-10
-4.61983e-10
3.35849e-10
-9.489e-11
-3.70811e-10
1.16294e-10
-2.27955e-10
3.00128e-09
-2.95354e-09
1.82425e-07
-1.84378e-07
3.51545e-06
-3.43009e-06
2.47638e-05
-3.14971e-05
5.0985e-05
-5.19003e-05
5.66684e-05
-5.70438e-05
6.10945e-05
-5.75255e-05
6.16946e-05
-5.72996e-05
6.16444e-05
-5.64022e-05
6.11967e-05
-5.44904e-05
5.92829e-05
-5.05849e-05
5.17854e-05
-3.55823e-05
3.54758e-05
-1.34868e-05
1.85004e-05
-2.35605e-06
5.35709e-06
-1.80077e-07
1.06793e-06
1.50459e-08
4.25081e-07
3.69978e-09
1.53254e-07
4.60692e-09
3.88943e-06
3.41829e-07
9.48168e-05
-1.24737e-14
2.66804e-14
-7.17074e-14
1.12915e-13
-1.91384e-12
3.99054e-12
-1.60397e-12
5.94674e-12
-6.36733e-13
6.05519e-12
-8.48573e-14
1.68429e-12
-3.561e-13
4.04671e-13
-4.56249e-12
4.59057e-12
-6.28085e-11
6.2065e-11
-7.33247e-11
1.54957e-10
-4.2605e-11
4.46088e-11
-7.71645e-12
1.08063e-11
-5.70781e-12
4.17188e-12
-8.4979e-12
4.10604e-12
-1.7933e-11
9.95761e-12
-2.46837e-10
1.54114e-10
-2.83133e-09
1.26259e-09
-1.80805e-09
-1.21047e-09
8.3418e-09
-1.20378e-08
1.17693e-08
-4.99069e-09
9.36854e-08
-8.45906e-08
6.10367e-06
-6.18188e-06
4.17436e-05
-4.05068e-05
5.54185e-05
-5.29702e-05
5.99166e-05
-5.59055e-05
6.07462e-05
-5.73769e-05
6.09331e-05
-5.731e-05
6.0667e-05
-5.66546e-05
5.81368e-05
-5.26351e-05
4.37206e-05
-2.85215e-05
2.08042e-05
-6.08744e-06
6.49285e-06
-7.01171e-07
2.53972e-06
-5.11356e-08
1.87308e-07
-3.32127e-09
7.3214e-09
-6.63308e-11
2.29291e-08
7.4113e-10
2.81764e-08
1.8465e-09
7.49572e-08
-1.02346e-08
1.59856e-07
1.75287e-07
1.78467e-06
-1.83477e-14
3.48736e-14
-3.31694e-13
9.50919e-13
-8.32707e-13
4.36236e-12
-1.37834e-12
7.46566e-12
-2.05449e-12
9.00852e-12
-4.35413e-11
4.34079e-11
-2.11921e-09
2.07608e-09
-2.78557e-09
9.3797e-09
-1.34051e-09
1.29883e-08
-4.18628e-11
3.48453e-10
-9.32803e-12
1.17294e-11
-4.7636e-12
5.85125e-12
-7.15131e-12
5.07956e-12
-1.25731e-11
7.21701e-12
-3.80886e-11
4.04797e-11
4.25619e-10
1.20213e-09
4.59873e-08
-4.46374e-08
3.51066e-07
-3.30809e-07
4.02014e-07
-1.15381e-07
2.9945e-07
7.07296e-08
1.56593e-06
-1.3385e-06
3.81694e-05
-2.50124e-05
5.72009e-05
-4.90307e-05
6.01769e-05
-5.40943e-05
5.99834e-05
-5.45571e-05
6.0146e-05
-5.70394e-05
5.75694e-05
-5.40012e-05
4.0229e-05
-2.72404e-05
1.43122e-05
-5.47228e-06
6.78481e-06
-6.32551e-07
7.51192e-07
-4.94385e-08
5.42211e-08
-3.83558e-09
3.39611e-09
-2.78024e-10
9.17691e-11
-1.28659e-11
2.59156e-11
6.96715e-13
6.89979e-10
7.84275e-11
2.26255e-09
7.09126e-10
7.60604e-09
-1.87503e-09
1.43428e-07
2.46466e-08
7.81473e-09
-4.20568e-14
6.82247e-14
-2.97518e-13
2.74482e-12
-1.92979e-13
6.09277e-12
1.63215e-12
6.40354e-12
-2.4446e-11
3.33561e-11
-1.45539e-09
2.61433e-09
-5.06382e-09
1.18006e-08
-8.24731e-09
1.45531e-08
-2.21871e-09
1.20311e-08
-9.45355e-12
3.44139e-10
-4.5165e-12
6.57194e-12
-4.17754e-12
5.16711e-12
-4.51116e-12
4.9047e-12
-5.29683e-12
7.57175e-12
1.99712e-12
3.30452e-11
1.06692e-07
-1.05316e-07
1.21939e-06
-1.18246e-06
5.30856e-06
-1.41961e-05
5.03749e-06
-1.83683e-05
2.20462e-06
-5.56198e-06
1.36187e-05
-3.58294e-06
5.58177e-05
-2.53175e-05
5.9128e-05
-4.05242e-05
5.74694e-05
-4.34491e-05
5.42765e-05
-3.94696e-05
4.16631e-05
-2.56102e-05
1.59303e-05
-5.24683e-06
6.10462e-06
-5.18142e-07
6.82183e-07
-4.44647e-08
5.31776e-08
-3.95244e-09
4.08501e-09
-3.33179e-10
2.8639e-10
-3.1146e-11
1.20512e-11
-2.79044e-12
1.94497e-12
-3.91354e-13
3.48922e-12
2.46314e-13
7.22529e-11
1.08683e-11
5.34992e-10
2.92889e-10
5.1393e-09
1.83516e-09
-1.84653e-08
4.57709e-08
-8.73321e-09
-2.32194e-13
1.04154e-13
-4.77648e-13
4.58355e-12
1.77124e-13
1.54041e-11
-5.19131e-12
1.56957e-11
-2.42208e-10
2.65113e-10
-4.74792e-09
9.21333e-09
-6.02843e-09
1.42739e-08
-5.39784e-09
1.55081e-08
-2.97935e-10
6.51012e-09
-4.87877e-12
4.99381e-11
-4.24456e-12
5.86097e-12
-4.11074e-12
4.87196e-12
-5.13735e-12
5.60885e-12
2.33274e-13
8.35179e-13
1.30489e-07
-1.30393e-07
3.50659e-06
-3.48221e-06
2.58913e-05
-2.84223e-05
4.03995e-05
-4.33756e-05
3.22973e-05
-4.38889e-05
1.27893e-05
-4.1309e-05
8.80724e-06
-1.29672e-05
1.81015e-05
-5.16064e-06
2.08339e-05
-9.98454e-07
1.70906e-05
-9.39139e-08
1.09146e-05
-8.20038e-09
5.81601e-06
-7.44711e-10
5.68037e-07
-7.02129e-11
4.88342e-08
-7.37967e-12
4.36774e-09
-9.91127e-13
3.77722e-10
-6.83073e-13
3.31002e-11
-4.29184e-13
2.18569e-12
-3.01556e-13
1.30555e-12
-3.61526e-13
2.51621e-12
-2.82168e-14
3.34127e-12
7.45155e-13
1.3826e-11
1.63463e-12
2.67225e-10
4.44301e-11
6.15607e-09
3.39061e-09
-6.33042e-09
5.12184e-08
-1.50636e-08
1.56311e-14
9.44897e-14
-1.45854e-12
5.71289e-12
3.78748e-13
3.12051e-11
-1.29923e-11
3.1713e-11
-2.00024e-10
1.06953e-09
-4.65608e-09
9.84542e-09
-5.10386e-09
1.58683e-08
-2.63281e-09
1.17462e-08
-4.05324e-11
3.95303e-10
-2.76885e-12
1.2047e-11
-2.67403e-12
5.64874e-12
-3.07118e-12
5.18989e-12
-1.5649e-12
5.51756e-12
8.95903e-09
-8.97588e-09
2.71597e-06
-2.83547e-06
2.60594e-05
-2.72176e-05
3.92564e-05
-4.56295e-05
4.20402e-05
-4.63014e-05
4.21531e-05
-4.41629e-05
4.10682e-05
-4.03845e-05
5.22208e-06
-1.38321e-05
1.00441e-06
-1.02346e-06
9.59657e-08
-9.64172e-08
8.36031e-09
-6.8487e-09
7.42834e-10
-6.30585e-10
6.82899e-11
-7.42923e-11
7.043e-12
-9.35985e-12
9.92494e-13
-1.44832e-12
5.5767e-13
-4.98607e-13
5.61911e-13
-4.43894e-13
5.95046e-13
-3.46944e-13
6.43264e-13
-1.88708e-13
2.39375e-12
-1.17488e-13
3.65288e-12
3.08428e-13
3.32606e-12
8.98274e-13
3.88675e-12
2.10063e-12
4.29605e-11
6.72284e-12
1.0429e-08
4.42631e-09
4.11121e-09
5.27333e-08
-1.01929e-08
3.0555e-15
8.87829e-14
5.31602e-13
7.31278e-12
4.1768e-12
3.29745e-11
-1.08075e-10
9.58476e-11
-2.02016e-10
3.5618e-09
-5.37269e-10
1.17361e-08
-1.46045e-09
8.27181e-09
-3.62424e-10
3.00142e-10
-6.23783e-12
4.28635e-11
-1.703e-12
7.28861e-12
-1.37088e-12
5.18724e-12
-4.155e-13
4.10936e-12
5.51532e-12
-4.55866e-13
1.70602e-07
-1.79574e-07
1.66859e-05
-1.74748e-05
3.63359e-05
-4.58152e-05
3.88095e-05
-4.83545e-05
3.89924e-05
-4.67593e-05
3.90654e-05
-4.43272e-05
2.52514e-05
-3.89806e-05
9.68052e-07
-3.28385e-06
8.91232e-08
-1.69086e-07
6.12639e-09
-1.4903e-08
5.44506e-10
-1.37672e-09
6.02185e-11
-1.55716e-10
6.99625e-12
-2.14366e-11
1.14566e-12
-3.33826e-12
5.65932e-13
-7.40267e-13
5.31618e-13
-3.07417e-13
7.09068e-13
-3.35871e-13
7.51223e-13
-3.07343e-13
9.52236e-13
-1.6487e-13
4.39991e-12
-4.19687e-14
7.93309e-12
7.24685e-13
8.07302e-12
3.03795e-12
6.01188e-12
4.18175e-12
1.0824e-11
2.29939e-12
6.30135e-09
2.66832e-09
7.96122e-09
4.46621e-08
1.52991e-09
2.06262e-14
5.07425e-14
-2.35244e-13
7.95198e-12
1.72382e-12
3.20874e-11
4.16263e-11
5.80313e-11
-1.56814e-09
4.96902e-09
-1.0146e-09
4.78602e-08
-1.75984e-10
2.53859e-08
-3.50733e-11
1.42678e-10
-3.91255e-12
1.87057e-11
-1.36619e-12
1.07108e-11
-9.89366e-13
1.46322e-11
1.55648e-12
8.19849e-12
6.99028e-12
-2.83476e-12
1.9809e-06
-2.16097e-06
3.20493e-05
-3.91019e-05
3.56083e-05
-4.95557e-05
3.6034e-05
-4.90542e-05
3.57665e-05
-4.6737e-05
3.33159e-05
-4.20769e-05
4.25887e-06
-1.76786e-05
1.30141e-07
-4.69227e-07
1.10778e-08
-5.08917e-08
9.39932e-10
-4.8774e-09
9.7262e-11
-5.38322e-10
1.20285e-11
-6.96407e-11
1.77193e-12
-1.07613e-11
6.20814e-13
-1.90373e-12
5.61566e-13
-5.3457e-13
5.47677e-13
-2.50604e-13
7.54154e-13
-1.96502e-13
9.82573e-13
-1.84006e-13
1.1458e-12
-1.70306e-13
1.05894e-12
-2.12377e-14
7.376e-12
5.53649e-13
9.0328e-12
3.68193e-12
1.07309e-11
4.10791e-12
1.11292e-11
1.87927e-12
2.15723e-09
5.17159e-10
8.11666e-09
3.0918e-08
2.3659e-08
2.94773e-16
3.18447e-14
2.29229e-14
5.77942e-12
2.82727e-14
3.27413e-11
2.43486e-12
4.06815e-11
-1.74113e-10
4.29417e-09
-1.64288e-10
5.5536e-08
2.30722e-10
5.347e-08
-4.23269e-13
2.5721e-10
-1.84975e-14
2.73565e-11
1.31029e-12
1.72169e-11
3.01845e-12
1.60738e-11
8.13891e-12
6.1964e-12
1.49948e-11
-5.2137e-12
1.16648e-05
-3.25104e-06
3.14425e-05
-4.75753e-05
3.27496e-05
-5.10354e-05
3.2362e-05
-4.88956e-05
3.14448e-05
-4.61542e-05
1.88021e-05
-3.09797e-05
4.36111e-07
-1.94735e-06
4.7112e-08
-8.37171e-08
4.34322e-09
-8.42322e-09
4.58697e-10
-9.38745e-10
5.70112e-11
-1.25755e-10
8.59805e-12
-1.89136e-11
1.61032e-12
-3.32539e-12
6.02464e-13
-7.86267e-13
4.33859e-13
-3.2563e-13
4.07441e-13
-2.17644e-13
4.67972e-13
-1.72732e-13
8.06641e-13
-1.23572e-13
8.55671e-13
-6.31661e-14
7.98028e-13
3.43769e-15
1.259e-12
9.57073e-14
6.06435e-12
3.99113e-13
8.13205e-12
1.28196e-12
8.92775e-12
9.98973e-13
4.454e-10
7.90292e-11
1.08782e-08
3.57307e-09
2.07775e-08
1.6066e-14
1.94237e-14
1.33684e-12
8.54355e-13
7.07313e-12
2.22688e-11
3.75475e-11
1.77594e-11
5.49228e-10
1.56118e-09
7.92722e-09
5.4884e-08
8.49709e-09
5.81007e-08
2.1206e-10
7.13257e-09
5.21945e-12
2.39258e-10
1.18731e-12
2.8158e-11
4.01503e-12
1.95771e-11
8.67421e-12
3.95165e-12
1.78484e-11
-8.16047e-12
1.18867e-05
-7.40721e-07
2.98166e-05
-3.74626e-05
3.04749e-05
-5.14569e-05
2.80439e-05
-4.6669e-05
2.11979e-05
-3.54878e-05
1.86794e-06
-3.76821e-06
7.83902e-08
-1.32655e-07
7.92624e-09
-1.11389e-08
8.7398e-10
-1.20781e-09
1.16732e-10
-1.53455e-10
1.76159e-11
-2.23866e-11
3.15423e-12
-3.78494e-12
8.40231e-13
-8.90611e-13
4.57159e-13
-3.81238e-13
4.06027e-13
-2.67677e-13
4.20009e-13
-2.22299e-13
4.28638e-13
-1.77532e-13
4.29539e-13
-1.24091e-13
4.24054e-13
-5.8958e-14
4.11011e-13
1.62172e-14
4.05622e-13
1.0026e-13
6.03877e-13
2.04356e-13
1.21881e-12
3.26185e-13
1.65686e-12
4.95169e-13
5.73807e-11
1.69401e-11
2.59229e-09
1.20813e-09
1.18526e-09
6.34294e-15
1.75987e-14
7.65044e-13
9.67622e-14
5.59999e-12
2.64774e-12
1.18015e-11
1.12519e-11
1.39974e-09
1.81565e-10
1.18779e-08
1.7711e-08
1.82734e-08
5.71076e-08
3.29202e-09
9.87493e-09
2.39063e-10
3.27585e-09
2.26657e-11
2.49707e-10
6.71659e-12
3.95635e-11
1.01044e-11
6.50778e-12
5.61334e-11
-4.65017e-11
3.95495e-06
-6.61973e-10
2.15577e-05
-7.90534e-06
2.42732e-05
-3.10658e-05
1.73922e-05
-2.14695e-05
3.79185e-06
-2.13128e-06
1.36684e-07
-9.15789e-08
1.17155e-08
-6.14216e-09
1.28453e-09
-5.53427e-10
1.6611e-10
-6.41966e-11
2.4333e-11
-9.25448e-12
4.04622e-12
-1.75685e-12
9.49195e-13
-6.16307e-13
4.64621e-13
-3.94811e-13
4.00119e-13
-3.18278e-13
4.0512e-13
-2.72866e-13
4.2412e-13
-2.31877e-13
4.37843e-13
-1.85338e-13
4.41203e-13
-1.25515e-13
4.35854e-13
-5.35446e-14
4.20411e-13
3.13732e-14
3.96538e-13
1.23847e-13
3.79149e-13
2.19952e-13
4.11993e-13
2.8655e-13
3.94811e-13
3.71445e-13
1.32643e-11
4.66719e-12
6.4089e-10
4.57934e-10
7.85528e-10
5.76671e-15
1.61229e-14
7.51898e-14
2.69519e-14
2.10757e-12
6.02554e-13
1.71997e-11
7.74197e-12
1.80996e-10
1.92682e-11
8.1888e-09
7.8214e-10
1.39936e-08
8.77546e-09
2.84611e-08
4.7677e-08
1.78884e-08
9.83503e-08
1.66281e-08
5.0983e-08
1.87142e-09
1.47972e-08
1.38673e-10
1.74313e-09
1.94263e-10
-8.08352e-11
2.35393e-09
-2.54368e-09
1.59062e-06
-1.35153e-08
4.48081e-06
-2.99005e-09
2.23e-06
-6.38818e-10
9.86515e-08
-1.42434e-10
6.78984e-09
-3.61416e-11
6.4924e-10
-7.82922e-12
7.46121e-11
-2.24646e-12
1.07521e-11
-9.55308e-13
1.91558e-12
-5.48919e-13
5.8114e-13
-4.34871e-13
3.9735e-13
-4.24147e-13
3.82768e-13
-3.83851e-13
3.94214e-13
-3.38501e-13
4.01309e-13
-2.85896e-13
4.11787e-13
-2.28795e-13
4.27298e-13
-1.76585e-13
4.4604e-13
-1.17123e-13
4.40015e-13
-4.20371e-14
4.26127e-13
4.93528e-14
3.94804e-13
1.5256e-13
3.50663e-13
2.60604e-13
2.91752e-13
3.39336e-13
2.68213e-13
3.51567e-13
3.03733e-12
1.31415e-12
2.77071e-10
3.28847e-10
3.19184e-10
8.06401e-15
1.5017e-14
1.70785e-14
1.82998e-14
5.4194e-13
7.80413e-14
6.90804e-12
2.84477e-12
2.07504e-11
6.49026e-12
7.33226e-10
7.57483e-11
8.56662e-09
7.06896e-10
6.67822e-08
1.07685e-08
1.15814e-07
6.66923e-08
9.62376e-08
7.90914e-08
6.50253e-08
6.63421e-08
3.31732e-08
3.20755e-08
2.67891e-09
3.32917e-09
3.35106e-09
-8.41143e-09
7.66614e-10
-1.15465e-08
1.55319e-10
-2.51778e-09
4.072e-11
-5.56891e-10
1.4495e-11
-1.19977e-10
3.59918e-12
-2.86496e-11
1.27369e-12
-5.72188e-12
6.3711e-13
-1.7693e-12
4.42473e-13
-7.99544e-13
3.91374e-13
-5.12703e-13
3.97052e-13
-4.65128e-13
4.06039e-13
-4.42563e-13
4.11326e-13
-3.95297e-13
3.93237e-13
-3.34e-13
3.62313e-13
-2.63417e-13
3.59609e-13
-2.18538e-13
3.67165e-13
-1.68719e-13
3.79996e-13
-1.07504e-13
3.79836e-13
-2.60792e-14
3.73507e-13
6.15287e-14
3.56024e-13
1.69741e-13
3.21599e-13
2.86949e-13
2.56076e-13
3.90712e-13
1.96115e-13
3.52363e-13
9.55759e-13
5.19277e-13
4.41424e-11
1.9894e-10
3.61574e-10
1.1355e-14
1.91345e-14
1.19249e-14
1.66561e-14
6.67309e-14
2.22669e-14
2.57248e-12
3.34767e-13
2.8046e-11
7.93094e-12
1.13648e-10
2.58163e-12
7.7557e-10
2.4876e-11
1.11656e-08
4.31756e-10
9.13899e-08
4.52087e-09
1.27843e-07
5.17645e-08
1.4292e-07
6.03366e-08
1.44803e-07
3.95812e-08
1.43703e-07
1.38532e-08
5.63436e-08
-1.52581e-08
-3.07206e-09
-2.29223e-08
-5.50392e-10
-5.65342e-09
-6.75449e-11
-1.1783e-09
-4.77935e-12
-2.14146e-10
3.76559e-13
-3.62553e-11
9.47479e-13
-7.08534e-12
6.52855e-13
-1.72041e-12
4.59122e-13
-6.72444e-13
4.09501e-13
-5.0309e-13
4.23258e-13
-4.71385e-13
4.12496e-13
-4.18882e-13
3.52053e-13
-3.18345e-13
3.05374e-13
-2.73952e-13
3.06404e-13
-2.47894e-13
3.1606e-13
-2.1232e-13
3.26603e-13
-1.66636e-13
3.34611e-13
-1.06901e-13
3.39905e-13
-2.17019e-14
3.1392e-13
9.20446e-14
2.88543e-13
1.92174e-13
2.61169e-13
3.19482e-13
2.19793e-13
4.11691e-13
1.61962e-13
3.31753e-13
2.7328e-13
3.13558e-13
3.33915e-12
1.94983e-10
3.64715e-10
2.37078e-14
2.9881e-14
2.23331e-14
3.18865e-14
2.23441e-14
1.97607e-14
3.20498e-13
3.48706e-14
1.49556e-11
1.89775e-12
6.83252e-11
1.16672e-11
1.44284e-10
1.28268e-11
5.84713e-10
-1.63256e-11
4.92919e-09
2.35458e-10
5.41015e-08
9.25167e-10
1.40855e-07
7.3493e-09
1.64621e-07
2.53267e-08
1.7854e-07
9.44602e-09
1.77738e-07
-4.9439e-09
1.42136e-08
-1.68583e-08
1.29287e-09
-1.8138e-09
2.20294e-10
-4.26556e-10
3.77978e-11
-7.78232e-11
7.11597e-12
-1.46952e-11
1.48356e-12
-2.89196e-12
4.41687e-13
-8.30275e-13
3.60315e-13
-4.89798e-13
3.95494e-13
-4.50739e-13
3.62632e-13
-3.68405e-13
2.67318e-13
-2.87328e-13
2.43808e-13
-2.7137e-13
2.49907e-13
-2.59926e-13
2.61789e-13
-2.38839e-13
2.80825e-13
-2.11495e-13
3.71676e-13
-2.4251e-13
4.79493e-13
-2.04677e-13
1.59666e-12
5.52417e-14
4.54818e-13
1.23756e-12
2.2759e-13
4.31588e-13
1.84566e-13
3.64669e-13
1.45092e-13
3.59089e-13
7.02769e-14
3.13262e-13
1.90458e-13
1.93376e-13
-4.20307e-12
3.38734e-08
3.58757e-10
3.39427e-14
2.56215e-14
4.21182e-14
3.2776e-14
2.77674e-14
2.8769e-14
4.1851e-14
2.18667e-14
1.8049e-12
1.3651e-13
5.79736e-11
2.93983e-12
1.06027e-10
1.43514e-11
7.77632e-11
-1.10058e-12
3.09428e-10
5.65492e-12
1.18636e-09
5.13845e-11
1.17243e-08
2.27162e-10
5.67763e-08
9.44946e-11
5.89451e-08
-1.08849e-10
3.4522e-08
-2.913e-10
3.90395e-09
-6.13342e-11
5.10492e-10
-6.5946e-12
9.44224e-11
-1.16246e-12
1.72303e-11
-4.09242e-13
3.09054e-12
-3.69337e-13
6.172e-13
-4.031e-13
3.01726e-13
-4.15804e-13
3.11095e-13
-3.85831e-13
2.82296e-13
-3.22802e-13
2.11436e-13
-2.62869e-13
1.97778e-13
-2.597e-13
1.98596e-13
-2.57202e-13
2.04003e-13
-2.46369e-13
2.20151e-13
-2.34817e-13
3.3544e-13
-3.09748e-13
9.39977e-13
-8.68897e-13
2.72023e-12
-1.97079e-12
1.47295e-11
1.48194e-12
1.95344e-11
1.44878e-11
1.66525e-12
2.34993e-11
1.27939e-14
1.4772e-12
4.96796e-14
3.90324e-13
1.19648e-14
3.10853e-13
-4.15332e-14
-1.28809e-12
-5.56087e-08
2.34108e-07
7.0236e-06
2.46413e-14
1.06615e-14
4.24712e-14
2.40953e-14
5.05667e-14
2.90587e-14
5.50346e-14
1.99092e-14
1.71842e-13
2.36268e-14
1.00855e-11
1.99216e-13
2.25922e-11
4.64871e-13
1.04492e-11
-2.23599e-13
1.62904e-11
7.58661e-14
6.65895e-11
1.19013e-12
2.92667e-10
3.32042e-12
3.8859e-10
1.04248e-12
3.59271e-10
-5.53194e-12
6.92045e-11
-1.10047e-12
8.10068e-12
-1.92647e-13
1.35818e-12
-1.95606e-13
4.89965e-13
-1.76128e-13
3.49478e-13
-2.66558e-13
3.28794e-13
-3.46118e-13
3.15666e-13
-3.78758e-13
3.01279e-13
-3.4141e-13
2.54126e-13
-2.97749e-13
1.75232e-13
-2.34466e-13
1.60152e-13
-2.37264e-13
1.54845e-13
-2.41227e-13
1.49857e-13
-2.37869e-13
1.52283e-13
-2.31381e-13
2.45729e-13
-3.12995e-13
1.06985e-12
-1.13254e-12
5.33802e-12
-5.44093e-12
2.97305e-11
-2.15143e-11
2.70781e-11
2.74447e-11
2.54225e-11
4.39983e-11
1.62652e-13
2.59612e-11
2.04212e-13
5.47982e-12
1.65136e-16
1.11115e-14
-1.79605e-10
1.68327e-10
-1.26402e-08
1.24067e-08
-4.07473e-07
7.19519e-07
8.96666e-06
1.40734e-14
2.62016e-15
2.62437e-14
7.45952e-15
5.26746e-14
2.09587e-14
6.60542e-14
2.47814e-14
8.50694e-14
2.56434e-14
2.81207e-13
4.20084e-15
7.46885e-13
6.1742e-15
5.10089e-13
9.79045e-15
5.79017e-13
1.23712e-14
1.77746e-12
1.98135e-14
5.10965e-12
2.01909e-14
6.22076e-12
-4.95411e-15
1.35415e-12
-4.09337e-14
3.24367e-13
-4.73351e-14
2.33438e-13
-7.93849e-14
2.50914e-13
-1.02409e-13
2.72191e-13
-1.79966e-13
2.99134e-13
-2.95927e-13
3.08913e-13
-3.46721e-13
3.04111e-13
-3.29316e-13
2.42999e-13
-2.73551e-13
1.48014e-13
-2.00323e-13
1.26966e-13
-2.03e-13
1.16522e-13
-2.13454e-13
1.03053e-13
-2.12793e-13
9.37564e-14
-2.12368e-13
1.21478e-13
-2.51695e-13
5.2776e-13
-9.56538e-13
5.39067e-12
-5.55207e-12
2.66817e-11
-5.65827e-11
7.03786e-12
-5.90435e-11
-1.61605e-11
5.97025e-11
-6.35316e-12
2.09886e-11
-2.55014e-12
2.6985e-11
-3.46799e-11
3.86565e-11
-6.4187e-10
5.94923e-10
-7.53724e-09
7.38067e-09
-4.71394e-08
7.11874e-08
-4.47406e-07
1.22102e-06
4.05812e-07
6.96086e-15
7.33329e-16
1.41727e-14
1.57555e-15
3.2909e-14
3.8594e-15
4.95079e-14
1.10926e-14
6.70143e-14
1.66699e-14
5.44121e-14
9.93237e-15
5.67705e-14
6.64112e-15
6.4056e-14
7.34129e-15
7.2118e-14
6.49895e-15
9.01746e-14
3.6968e-15
1.1387e-13
2.91104e-16
1.31066e-13
-7.41731e-15
1.33212e-13
-1.84414e-14
1.4767e-13
-3.76898e-14
2.11753e-13
-1.25621e-13
3.27371e-13
-2.05467e-13
4.24514e-13
-2.58834e-13
4.18214e-13
-2.93276e-13
3.47881e-13
-2.90273e-13
2.19381e-13
-2.18816e-13
1.1985e-13
-1.67899e-13
9.64724e-14
-1.6297e-13
8.28302e-14
-1.76294e-13
6.64885e-14
-1.82361e-13
4.98569e-14
-1.83413e-13
4.23618e-14
-1.85511e-13
7.34341e-14
-2.75565e-13
6.31745e-13
-2.84789e-12
-1.41283e-11
-5.18784e-11
-1.23795e-10
-1.26503e-10
-1.24347e-10
-5.99367e-12
-4.92655e-11
7.28838e-11
-3.82853e-11
2.50115e-11
-1.34516e-10
1.37443e-10
-9.29291e-10
8.61312e-10
-7.50826e-09
7.70284e-09
-3.92084e-08
4.08002e-08
-1.56489e-07
2.46185e-07
-1.63522e-07
6.43201e-07
9.64326e-08
2.84005e-15
-3.01359e-17
4.71715e-15
1.56715e-16
7.84392e-15
4.41996e-16
1.50049e-14
8.9854e-16
2.31921e-14
1.65363e-15
2.8074e-14
2.24823e-15
3.5226e-14
2.8357e-15
4.49284e-14
2.67651e-15
5.20706e-14
1.55232e-15
5.83966e-14
-6.96833e-16
6.76768e-14
-4.71262e-15
8.50591e-14
-1.31911e-14
1.37066e-13
-3.96373e-14
2.81642e-13
-1.06314e-13
3.8349e-13
-1.54547e-13
3.97638e-13
-1.92935e-13
3.76583e-13
-2.12296e-13
2.99316e-13
-2.18091e-13
1.57565e-13
-1.68056e-13
9.34822e-14
-1.39311e-13
7.10004e-14
-1.27446e-13
5.58372e-14
-1.36118e-13
3.94311e-14
-1.45295e-13
2.04668e-14
-1.50721e-13
7.68513e-16