/*--------------------------------*- C++ -*----------------------------------*\
| =========                 |                                                 |
| \\      /  F ield         | OpenFOAM: The Open Source CFD Toolbox           |
|  \\    /   O peration     | Version:  5.0                                   |
|   \\  /    A nd           | Web:      www.OpenFOAM.org                      |
|    \\/     M anipulation  |                                                 |
\*---------------------------------------------------------------------------*/
FoamFile
{
    version     2.0;
    format      ascii;
    class       volScalarField;
    location    "0.55";
    object      alpha.water;
}
// * * * * * * * * * * * * * * * * * * * * * * * * * * * * * * * * * * * * * //

dimensions      [0 0 0 0 0 0 0];

internalField   nonuniform List<scalar> 
1935
(
3.41888e-12
6.75523e-12
1.31009e-11
2.46922e-11
4.32501e-11
6.76248e-11
9.29212e-11
1.13347e-10
1.27025e-10
1.25329e-10
1.06598e-10
8.64783e-11
7.33925e-11
6.5704e-11
6.22457e-11
6.10439e-11
6.02512e-11
5.72569e-11
4.79212e-11
3.42179e-11
2.11322e-11
1.09852e-11
4.4077e-12
1.28761e-12
3.16231e-13
6.96034e-14
1.09033e-14
1.55941e-15
1.40018e-16
1.08619e-17
7.62217e-19
4.75841e-20
2.4437e-21
1.03213e-22
3.60254e-24
1.00592e-25
2.14317e-27
3.3723e-29
5.38588e-31
1.1541e-32
7.67451e-35
5.45536e-38
2.38917e-48
7.77522e-12
1.5361e-11
2.83899e-11
5.22207e-11
1.48788e-11
2.85454e-11
5.44173e-11
1.11649e-10
2.76808e-11
5.22781e-11
1.06559e-10
2.55203e-10
4.99679e-11
9.51558e-11
2.16087e-10
5.01552e-10
8.53544e-11
1.66681e-10
4.27967e-10
7.18574e-10
1.3496e-10
2.78032e-10
7.26238e-10
8.68846e-10
1.9623e-10
4.51839e-10
1.03686e-09
9.74522e-10
2.66221e-10
6.93709e-10
1.27721e-09
9.51816e-10
3.38524e-10
9.10012e-10
1.27742e-09
9.4078e-10
3.86973e-10
1.01438e-09
1.2773e-09
8.97931e-10
3.61759e-10
9.8407e-10
1.2774e-09
8.34004e-10
2.74729e-10
8.60651e-10
1.2571e-09
7.76375e-10
1.86731e-10
6.14366e-10
1.14026e-09
7.65953e-10
1.41227e-10
3.58136e-10
8.4564e-10
7.70356e-10
1.23839e-10
2.25622e-10
4.8387e-10
6.91241e-10
1.18719e-10
1.87782e-10
2.86181e-10
5.02822e-10
1.18862e-10
1.82902e-10
2.41093e-10
3.26533e-10
1.18588e-10
1.84517e-10
2.45111e-10
3.05629e-10
1.11723e-10
1.84242e-10
2.69925e-10
3.77158e-10
9.27536e-11
1.78107e-10
2.98721e-10
5.14568e-10
6.93503e-11
1.53878e-10
2.9111e-10
5.7216e-10
4.40565e-11
1.09128e-10
2.10944e-10
3.91191e-10
2.07148e-11
5.75707e-11
1.16431e-10
2.01409e-10
7.38603e-12
2.62669e-11
6.72158e-11
1.33078e-10
2.39779e-12
1.08563e-11
3.22252e-11
6.86164e-11
6.71328e-13
3.60828e-12
1.15959e-11
2.63237e-11
1.36744e-13
1.02945e-12
4.28578e-12
1.13446e-11
2.59102e-14
2.45513e-13
1.17087e-12
3.38034e-12
2.73438e-15
3.64058e-14
2.3545e-13
8.57186e-13
2.23044e-16
3.95132e-15
3.34209e-14
1.50583e-13
1.43612e-17
3.1138e-16
3.42354e-15
1.94511e-14
8.07913e-19
1.97178e-17
2.70538e-16
1.91636e-15
3.69491e-20
9.88604e-19
1.71745e-17
1.55379e-16
1.33521e-21
3.56303e-20
8.03497e-19
1.0014e-17
4.08114e-23
9.31274e-22
2.56989e-20
4.71262e-19
1.0774e-24
1.93443e-23
5.52142e-22
1.51089e-20
2.35545e-26
3.44861e-25
8.08443e-24
2.99295e-22
4.2032e-28
5.56842e-27
8.53758e-26
2.44009e-24
1.10871e-29
1.35305e-28
8.29111e-28
2.03587e-27
1.67981e-31
1.27533e-30
9.05983e-30
1.74477e-29
1.05138e-33
7.71241e-33
6.31282e-32
8.21577e-32
1.64537e-36
1.79645e-35
7.36887e-35
8.27743e-36
0
1.06967e-56
1.10497e-53
-1.22224e-38
1.05604e-10
2.12747e-10
4.10548e-10
5.46676e-10
5.49858e-10
5.49843e-10
4.94231e-10
4.96615e-10
5.27019e-10
6.40976e-10
7.42645e-10
8.3701e-10
7.13853e-10
5.35086e-10
4.87765e-10
4.09811e-10
4.06706e-10
4.38046e-10
5.53872e-10
4.90041e-10
4.41617e-10
3.53499e-10
1.13213e-09
2.90312e-09
3.96261e-09
1.44759e-08
9.70712e-08
8.04687e-07
3.93043e-06
3.38509e-05
0.000195154
0.00117947
0.493922
0.985315
0.999898
0.999988
0.999993
0.999995
0.999997
0.564044
2.50232e-10
5.12153e-10
5.97717e-10
5.97717e-10
5.23216e-10
5.22883e-10
4.95154e-10
6.02198e-10
8.13192e-10
8.87823e-10
7.44376e-10
6.54081e-10
6.19344e-10
5.47024e-10
7.62673e-10
2.82379e-08
3.80694e-08
2.50169e-09
4.63812e-10
4.58934e-10
4.46092e-10
3.99351e-10
1.04831e-09
5.18618e-09
4.9859e-08
6.13402e-07
3.01377e-06
2.25144e-05
9.31978e-05
0.000574968
0.00754312
0.403139
0.95938
0.999758
0.999972
0.999988
0.999991
0.999995
0.999996
0.553534
5.44479e-10
6.03581e-10
5.96988e-10
5.23644e-10
5.23243e-10
5.7159e-10
2.76635e-09
1.56741e-09
1.00211e-09
8.44838e-10
7.16149e-10
6.66267e-10
6.54076e-10
8.02388e-08
1.42595e-08
7.6531e-08
6.16248e-08
4.71886e-10
4.65344e-10
4.63799e-10
4.88504e-10
1.39639e-09
4.46875e-08
2.18371e-07
2.24742e-06
2.39177e-05
9.96002e-05
0.00043964
0.00217653
0.140317
0.56176
0.998047
0.99968
0.999862
0.999948
0.99999
0.999993
0.999995
0.999996
0.664454
6.37226e-10
5.79871e-10
5.40406e-10
5.25437e-10
5.23635e-10
5.72145e-10
6.70785e-09
1.61945e-09
9.88628e-10
8.5906e-10
7.53667e-10
1.33579e-08
2.10876e-07
3.15952e-07
2.83962e-07
2.88294e-09
1.07683e-08
8.35634e-10
4.71892e-10
5.52773e-10
9.36612e-07
6.89311e-06
4.14633e-07
1.39193e-05
9.84429e-05
0.000535019
0.00653101
0.113453
0.418719
0.881537
0.997178
0.998094
0.998704
0.999613
0.999883
0.999962
0.99999
0.996386
0.999995
0.951206
6.30959e-10
5.67341e-10
5.43874e-10
2.59544e-08
7.87375e-08
3.93819e-08
1.64473e-09
1.5051e-09
1.01068e-09
7.44359e-09
4.64836e-07
7.7259e-07
7.49852e-07
2.44295e-07
3.66e-08
2.39943e-09
1.84698e-09
1.049e-09
1.39375e-09
1.06126e-08
6.62727e-08
1.63687e-07
2.06104e-05
0.000437015
0.0116406
0.160299
0.487471
0.862748
0.990603
0.9915
0.993186
0.997172
0.998097
0.998084
0.955259
0.862937
0.667984
0.447514
0.709059
0.991535
5.77505e-10
5.7539e-10
9.44054e-09
8.74062e-08
8.6015e-08
3.69797e-08
1.71881e-09
1.62796e-09
1.67511e-09
8.02337e-08
1.03985e-06
1.03985e-06
1.38421e-07
3.5901e-08
8.73383e-09
2.5512e-09
2.13831e-09
1.58822e-09
9.54186e-09
6.99104e-09
1.57751e-07
-5.50762e-07
0.000552538
0.152647
0.528074
0.912673
0.984016
0.984592
0.987254
0.990601
0.991356
0.948836
0.798518
0.584765
0.302349
0.0669233
0.0367888
0.0047327
0.0888446
0.893206
5.79667e-10
6.17645e-10
3.87384e-08
8.7439e-08
5.60197e-08
2.68482e-09
1.77857e-09
1.87856e-09
4.78409e-09
1.03762e-06
5.63213e-07
1.96664e-07
5.04359e-08
3.3762e-08
1.42909e-08
6.54643e-07
9.92919e-06
2.33876e-06
6.14116e-06
5.14218e-06
2.41042e-06
9.33091e-05
0.310533
0.868668
0.977932
0.978627
0.981031
0.984014
0.981994
0.881842
0.604717
0.305005
0.0392872
2.52067e-06
1.77603e-07
1.48562e-05
6.98467e-05
0.000183104
0.00102857
0.375341
5.86021e-10
6.63276e-09
6.38652e-08
8.71246e-08
5.29452e-08
3.77313e-09
1.93941e-09
4.29478e-05
4.41224e-05
1.67539e-06
5.90124e-08
6.01878e-08
5.52427e-08
5.04227e-08
9.48349e-08
2.52851e-06
1.28746e-05
0.000148568
0.000280617
0.000119662
9.36744e-05
0.223636
0.9041
0.965465
0.971391
0.977929
0.978285
0.859973
0.522648
0.13978
3.92412e-05
2.93371e-06
1.22248e-07
3.85022e-08
2.74964e-08
1.60336e-07
4.37019e-06
6.62306e-05
0.000257373
0.00278008
8.67561e-10
1.93376e-08
4.39852e-08
5.25287e-08
6.07531e-08
1.03453e-06
9.8444e-05
0.000136894
0.000128515
5.90923e-08
5.50405e-08
5.77571e-08
6.02877e-08
6.64797e-08
2.44116e-07
1.71447e-06
0.000461933
0.0644029
0.0853149
0.0199072
0.00564927
0.532604
0.902764
0.939562
0.922275
0.844414
0.546769
0.112989
2.65322e-05
-2.24621e-06
2.72485e-08
3.21713e-08
5.48973e-09
1.84494e-08
2.37547e-08
2.62562e-08
3.38556e-07
2.54965e-05
0.000305481
-1.07938e-05
1.42276e-09
4.76574e-08
6.0734e-08
6.51037e-08
3.87158e-07
7.46594e-05
0.000140643
0.000138863
0.000107018
5.48068e-08
5.41903e-08
5.50447e-08
5.65168e-08
1.23078e-07
-2.4802e-07
0.000256025
0.176519
0.598946
0.682364
0.476875
0.208622
0.23177
0.319157
0.30117
0.238202
0.0905005
-6.21242e-06
-4.80128e-06
-9.84489e-09
-2.28019e-07
-4.6152e-08
3.0566e-09
7.32857e-09
2.15964e-08
2.27996e-08
2.39136e-08
4.72272e-08
2.9773e-05
0.00045051
0
8.34652e-10
6.5629e-08
2.30645e-07
1.29953e-07
2.57866e-06
8.56277e-05
0.00014035
0.000140423
1.45707e-05
5.4121e-08
5.3934e-08
5.41926e-08
5.74611e-08
-2.87858e-08
6.55932e-06
0.16371
0.719006
0.789191
0.78929
0.79024
0.296583
0.000822105
6.90193e-05
5.97926e-06
5.39938e-07
5.10236e-08
6.97554e-09
2.94488e-09
4.29673e-09
4.56504e-09
4.90285e-09
4.76135e-09
7.59252e-09
3.06168e-08
2.84406e-08
2.55611e-08
1.96634e-08
3.26047e-05
0.00045051
1.24467e-06
6.83389e-10
8.08312e-08
3.46567e-07
9.07724e-07
1.42944e-05
1.66738e-05
4.97643e-05
3.69017e-05
5.72642e-08
5.39603e-08
5.40179e-08
5.40118e-08
5.42685e-08
4.48528e-08
0.0632825
0.676078
0.788127
0.788502
0.788507
0.779601
0.159402
0.000357821
2.63251e-05
2.5017e-06
3.01062e-07
4.09412e-08
8.89161e-09
4.5001e-09
3.50546e-09
4.39849e-09
4.90614e-09
4.44458e-09
3.76206e-09
6.36033e-08
6.63907e-08
3.37139e-08
1.32118e-08
1.12405e-05
0.000439774
7.47158e-06
5.528e-10
1.20736e-07
3.50002e-07
3.53435e-07
4.87273e-05
0.000152776
1.86284e-05
3.04943e-07
6.57797e-08
6.29546e-08
1.30566e-07
1.85137e-07
5.89828e-08
-8.13661e-07
0.501567
0.787341
0.787253
0.787741
0.788247
0.435934
0.0113385
6.52834e-05
6.27129e-06
7.55222e-07
1.12902e-07
2.26291e-08
5.91041e-09
3.32084e-09
2.4824e-09
4.04835e-09
5.37176e-09
4.34721e-09
3.2231e-09
3.86081e-08
6.63907e-08
6.3806e-08
7.04012e-09
9.19213e-09
0.000398805
2.08001e-05
5.14875e-10
1.06632e-07
4.70996e-07
4.13744e-07
4.56211e-05
0.000519732
0.000458534
3.43216e-07
8.74105e-08
9.06874e-08
2.15024e-07
2.12483e-07
6.28401e-08
0.0192661
0.689055
0.786105
0.787247
0.787585
0.729757
0.120487
0.00026706
2.06219e-05
1.20273e-06
2.05283e-07
4.05496e-08
9.92215e-09
4.2356e-09
2.51562e-09
2.03589e-09
2.00685e-09
3.01802e-09
4.46929e-09
3.13186e-09
1.96414e-09
2.14454e-08
4.20252e-08
2.79305e-09
5.34756e-09
0.00012564
0.00018455
3.17546e-10
2.85179e-08
4.65494e-07
1.77752e-07
1.75171e-05
0.000523904
0.000527332
1.89492e-05
1.12274e-07
9.39446e-08
1.18765e-07
1.01239e-07
6.98849e-08
0.0416552
0.653601
0.782648
0.78627
0.775638
0.225402
0.000338981
2.5313e-05
1.91333e-06
3.18403e-07
4.71912e-08
9.23176e-09
3.27923e-09
2.21597e-09
1.98497e-09
1.93514e-09
1.93904e-09
1.93877e-09
1.94042e-09
1.93886e-09
1.93966e-09
1.96551e-09
3.71292e-09
1.70338e-09
-3.93492e-09
-5.46123e-07
0.000101348
3.15908e-10
3.09119e-10
1.77438e-07
1.7555e-07
1.41409e-07
0.000420877
0.00052673
9.74215e-05
2.58259e-07
1.1178e-07
1.09717e-07
9.81939e-08
7.97745e-08
0.00279674
0.260273
0.712125
0.685623
0.241843
8.66898e-05
1.97077e-06
5.64908e-07
-9.78417e-08
6.751e-09
3.33281e-09
2.37091e-09
2.09659e-09
1.97943e-09
1.92958e-09
1.92539e-09
1.9371e-09
1.93706e-09
1.93843e-09
1.93889e-09
1.93889e-09
1.94013e-09
1.74002e-09
1.50417e-09
4.00341e-09
-5.62831e-09
1.36899e-06
3.15921e-10
3.15776e-10
4.05147e-10
1.64221e-07
8.853e-08
2.44492e-05
0.000290767
0.00046809
0.000369573
0.000215148
1.16897e-07
1.09997e-07
1.15203e-07
8.00833e-07
0.0130277
0.128348
0.0589463
-6.3856e-07
-3.66448e-06
-1.42372e-08
-1.3753e-07
8.14841e-10
1.85511e-09
2.18501e-09
2.0928e-09
2.05013e-09
1.99358e-09
1.92406e-09
1.85995e-09
1.87261e-09
1.93669e-09
1.99243e-09
1.99435e-09
1.98996e-09
1.97463e-09
1.77956e-09
1.31843e-09
1.39326e-09
-7.12869e-08
-7.5639e-09
3.19612e-10
3.1815e-10
3.24159e-10
6.71349e-08
7.17005e-08
4.23942e-08
1.86044e-06
0.000207274
0.00103394
0.00111022
0.00110012
0.000845402
0.000250323
1.63318e-05
2.58936e-06
5.65167e-07
1.35336e-07
1.87876e-08
9.44488e-09
2.02297e-09
2.70431e-09
2.38121e-09
2.30438e-09
2.26622e-09
2.26238e-09
2.20341e-09
2.10418e-09
1.87566e-09
1.69234e-09
1.68121e-09
1.72446e-09
1.76466e-09
1.81759e-09
1.8648e-09
1.94666e-09
1.82434e-09
1.31396e-09
1.14774e-09
7.89244e-08
2.37403e-09
4.01272e-10
3.3314e-10
3.34379e-10
3.91081e-10
1.18303e-07
1.21814e-07
4.39535e-07
1.71159e-06
0.000239459
0.00116196
0.00116968
0.00117307
0.00117374
0.00110857
0.000208776
2.56676e-06
5.59062e-07
1.28098e-07
2.58371e-08
8.1989e-09
3.41108e-09
2.58504e-09
2.39504e-09
2.51953e-09
2.46808e-09
2.18784e-09
1.76554e-09
1.5759e-09
1.57726e-09
1.60156e-09
1.63766e-09
1.67769e-09
1.72387e-09
1.72598e-09
1.81714e-09
1.81798e-09
1.27166e-09
7.23623e-10
1.97278e-09
1.83504e-10
7.68776e-10
6.17702e-10
3.766e-10
3.89948e-10
1.95547e-08
2.89829e-07
3.99453e-07
4.5795e-07
1.06727e-06
4.57204e-05
0.000719969
0.00117374
0.00117374
0.00117374
0.000738054
1.80708e-05
1.39741e-06
2.046e-07
4.26143e-08
9.01812e-09
3.34552e-09
2.55098e-09
2.6993e-09
2.52447e-09
1.93189e-09
1.52157e-09
1.46004e-09
1.48861e-09
1.50497e-09
1.54459e-09
1.64469e-09
9.92196e-09
1.73003e-09
1.64893e-09
1.65198e-09
1.61242e-09
8.38213e-10
2.09765e-26
1.00116e-05
-1.14849e-12
1.05427e-09
1.0643e-09
6.00666e-10
4.45098e-10
4.83836e-10
1.42216e-07
6.92145e-07
3.89137e-07
6.69436e-08
1.78872e-07
9.91502e-06
0.000176799
0.000376978
0.000320495
0.000130881
2.01723e-06
-5.8058e-08
-3.21506e-10
1.04963e-09
2.11005e-09
2.23229e-09
2.29871e-09
2.09771e-09
1.66582e-09
1.39618e-09
1.3912e-09
1.41558e-09
1.41974e-09
1.45394e-09
1.71191e-09
2.15332e-09
4.49468e-08
2.37455e-07
1.20249e-07
1.66285e-09
2.38598e-11
-3.83015e-11
-2.90485e-09
0.000178479
0.00196905
7.92528e-10
1.0643e-09
1.05748e-09
5.30001e-10
5.22261e-10
2.59154e-08
2.38013e-07
1.20961e-07
-2.01546e-09
7.36039e-09
2.13317e-08
2.72615e-08
8.40707e-07
1.82131e-09
1.36339e-09
1.49706e-09
1.55673e-09
1.73946e-09
2.05388e-09
2.0929e-09
2.19962e-09
2.08101e-09
1.5878e-09
1.35071e-09
1.35182e-09
1.35774e-09
1.3485e-09
1.37131e-09
1.49911e-09
3.34281e-09
2.0154e-07
4.55996e-07
5.61112e-07
1.85964e-07
8.52048e-11
6.26337e-11
-3.42703e-09
-1.41041e-07
0.000733679
0.0255599
3.50181e-10
7.10782e-10
1.13015e-09
1.13015e-09
1.0047e-09
8.57274e-10
6.37464e-10
6.70343e-10
6.51274e-10
2.1761e-10
8.84774e-10
4.28779e-10
1.40099e-09
9.9461e-10
1.1555e-09
1.42453e-09
1.65713e-09
1.88641e-09
2.01804e-09
2.41266e-09
2.2938e-09
1.64567e-09
1.30828e-09
1.32317e-09
1.30114e-09
1.28196e-09
1.36927e-09
2.41464e-09
2.56401e-09
2.92716e-07
2.0357e-06
1.74717e-06
2.3663e-07
7.11994e-08
5.17032e-09
-1.57101e-08
-2.4092e-07
7.35909e-06
0.00187576
0.0186216
2.1549e-10
3.3279e-10
6.15037e-10
1.00271e-09
1.11538e-09
8.28523e-10
4.89723e-10
5.29793e-10
5.79679e-10
5.90259e-10
6.13403e-10
9.39033e-10
9.41357e-10
9.66105e-10
1.21148e-09
1.79438e-09
2.7912e-09
3.47e-09
3.37463e-09
2.75186e-09
1.70504e-09
1.242e-09
1.25532e-09
1.24292e-09
1.19472e-09
1.20678e-09
1.53039e-09
6.02818e-09
1.92293e-07
1.9707e-06
2.67941e-06
1.5253e-06
1.43433e-07
7.74489e-08
1.05202e-08
4.66807e-07
7.35571e-06
0.000368493
0.0030486
0.000184605
1.11562e-10
1.5011e-10
1.93903e-10
2.92573e-10
4.43697e-10
4.58024e-10
4.82891e-10
5.43382e-10
5.79663e-10
5.91177e-10
6.19003e-10
6.84237e-10
8.92772e-10
1.61058e-09
3.39223e-09
3.61832e-09
3.61789e-09
3.53532e-09
2.50576e-09
1.57273e-09
1.20404e-09
1.16573e-09
1.17554e-09
1.13807e-09
1.1246e-09
1.12487e-09
1.19726e-09
2.62375e-09
5.63987e-07
2.63889e-06
2.71824e-06
9.96012e-07
1.95628e-07
1.91609e-07
1.06068e-06
7.80725e-06
0.000238859
0.000942394
0.00106903
-6.56996e-07
4.89305e-11
7.88352e-11
1.14451e-10
1.55484e-10
2.04581e-10
2.61951e-10
3.28958e-10
3.99955e-10
4.79887e-10
6.07138e-10
8.55138e-10
1.28867e-09
2.21654e-09
3.61452e-09
3.61874e-09
3.61874e-09
3.33358e-09
2.18134e-09
1.52811e-09
1.21658e-09
1.08655e-09
1.08526e-09
1.06031e-09
1.04711e-09
1.05266e-09
1.08087e-09
1.35279e-09
4.28057e-09
1.09321e-07
1.67138e-06
2.6837e-06
1.52895e-06
5.20023e-07
1.92433e-06
1.56624e-05
0.000229508
0.000425376
0.000469013
3.75055e-05
-4.18893e-07
2.25679e-11
3.69503e-11
5.43162e-11
7.89562e-11
1.1878e-10
1.80842e-10
2.68449e-10
3.8796e-10
5.64979e-10
8.34733e-10
1.24975e-09
1.91332e-09
2.71186e-09
3.22091e-09
3.23262e-09
2.72621e-09
1.84665e-09
1.49005e-09
1.23932e-09
1.0402e-09
9.7892e-10
9.53318e-10
9.46935e-10
9.5683e-10
9.62093e-10
1.05569e-09
1.62649e-09
7.5779e-09
3.00766e-07
1.03881e-06
1.25589e-06
2.02489e-06
2.791e-06
3.45545e-05
0.000154292
0.000221355
0.000156084
1.51875e-05
4.90277e-06
-2.55196e-08
7.27665e-12
1.30559e-11
2.17315e-11
3.74866e-11
7.0241e-11
1.34474e-10
2.43412e-10
4.09348e-10
6.40454e-10
9.55492e-10
1.32832e-09
1.6328e-09
1.76897e-09
1.70873e-09
1.59839e-09
1.44035e-09
1.31972e-09
1.17332e-09
9.84038e-10
8.7798e-10
8.32268e-10
8.18652e-10
8.29373e-10
8.63019e-10
8.82828e-10
9.93058e-10
1.71998e-09
1.90502e-08
1.72311e-07
2.56468e-07
5.22458e-07
1.69281e-06
2.7262e-05
6.52262e-05
8.89725e-05
5.01093e-05
5.53584e-06
2.1612e-06
1.02465e-07
-2.69313e-09
2.18093e-12
4.38465e-12
8.04864e-12
1.58174e-11
3.59974e-11
8.41126e-11
1.73713e-10
3.04188e-10
4.6217e-10
6.26339e-10
7.71769e-10
8.75665e-10
9.32744e-10
9.53965e-10
9.57507e-10
9.54565e-10
9.27846e-10
8.53573e-10
7.62109e-10
7.0508e-10
6.79513e-10
6.75522e-10
7.02492e-10
7.63075e-10
8.42247e-10
9.30253e-10
1.73151e-09
7.87089e-09
2.44597e-08
7.61746e-08
3.11915e-07
7.20351e-06
2.51827e-05
1.9232e-05
2.35832e-06
1.7346e-06
9.68012e-07
2.38952e-07
-4.6413e-09
-4.71762e-15
4.57634e-13
1.06943e-12
2.30194e-12
5.43847e-12
1.49239e-11
3.99961e-11
8.89666e-11
1.60106e-10
2.42165e-10
3.22171e-10
3.91573e-10
4.48075e-10
4.94302e-10
5.35115e-10
5.70815e-10
5.94032e-10
5.98007e-10
5.81962e-10
5.53682e-10
5.31278e-10
5.23257e-10
5.29019e-10
5.64783e-10
6.33278e-10
7.82966e-10
1.06514e-09
1.38733e-09
2.4742e-09
7.12264e-09
3.24049e-08
9.29752e-07
3.16414e-06
2.18643e-06
6.2651e-07
4.80301e-07
3.22397e-07
1.37931e-07
1.8174e-08
-5.49518e-11
7.6247e-13
7.21112e-14
1.98399e-13
5.06114e-13
1.43022e-12
4.56167e-12
1.35244e-11
3.23629e-11
6.19882e-11
9.94609e-11
1.40338e-10
1.81018e-10
2.19776e-10
2.56491e-10
2.91029e-10
3.20708e-10
3.41076e-10
3.52607e-10
3.60843e-10
3.66062e-10
3.66542e-10
3.70374e-10
3.85901e-10
4.21328e-10
4.81668e-10
5.92211e-10
8.05724e-10
1.08304e-09
1.29424e-09
2.64198e-09
4.09838e-08
1.96207e-07
7.52742e-08
1.04264e-07
1.17972e-07
8.82887e-08
5.17485e-08
1.65345e-08
6.63962e-10
4.97131e-11
1.80461e-11
8.70063e-15
2.82714e-14
8.55014e-14
2.84074e-13
1.01982e-12
3.28521e-12
8.52554e-12
1.79173e-11
3.1881e-11
5.01177e-11
7.1829e-11
9.58649e-11
1.20544e-10
1.43299e-10
1.61626e-10
1.75607e-10
1.87971e-10
2.00633e-10
2.12827e-10
2.24035e-10
2.36101e-10
2.53908e-10
2.83153e-10
3.29104e-10
4.04912e-10
5.44965e-10
7.85757e-10
1.09706e-09
1.66594e-09
4.68802e-09
5.02982e-09
1.10497e-08
1.79218e-08
2.01168e-08
1.46905e-08
7.92577e-09
2.39591e-09
3.12844e-10
2.45373e-10
2.05185e-11
8.78957e-16
3.3552e-15
1.17423e-14
4.41544e-14
1.73406e-13
6.00508e-13
1.68944e-12
3.92811e-12
7.88402e-12
1.41289e-11
2.30346e-11
3.44187e-11
4.71961e-11
5.95574e-11
7.01085e-11
7.89808e-11
8.74865e-11
9.67792e-11
1.06983e-10
1.17948e-10
1.30315e-10
1.4561e-10
1.66364e-10
1.96566e-10
2.43578e-10
3.23352e-10
4.7146e-10
7.28415e-10
1.00803e-09
1.08509e-09
1.27238e-09
2.13746e-09
3.11732e-09
3.50417e-09
2.61522e-09
1.6573e-09
7.60341e-10
5.23251e-10
2.28887e-10
1.20735e-11
7.59431e-17
3.49636e-16
1.40122e-15
5.75773e-15
2.41848e-14
8.97806e-14
2.7346e-13
6.97919e-13
1.56234e-12
3.15965e-12
5.81545e-12
9.6896e-12
1.45423e-11
1.97765e-11
2.48581e-11
2.96666e-11
3.44256e-11
3.94767e-11
4.52083e-11
5.20206e-11
6.02111e-11
7.01246e-11
8.2642e-11
9.96933e-11
1.24571e-10
1.63951e-10
2.32908e-10
3.57476e-10
5.50362e-10
7.30245e-10
7.93381e-10
8.14412e-10
9.70592e-10
1.04331e-09
9.37254e-10
7.58226e-10
6.71684e-10
4.82866e-10
1.53544e-10
5.04001e-12
5.31527e-18
3.10703e-17
1.4641e-16
6.59193e-16
2.96018e-15
1.19024e-14
3.96722e-14
1.10798e-13
2.70756e-13
5.96802e-13
1.19406e-12
2.15382e-12
3.49103e-12
5.13376e-12
6.98693e-12
8.97993e-12
1.1065e-11
1.32637e-11
1.57486e-11
1.8806e-11
2.26802e-11
2.75419e-11
3.36794e-11
4.16755e-11
5.27253e-11
6.91142e-11
9.53847e-11
1.4097e-10
2.20405e-10
3.44413e-10
4.76406e-10
5.57235e-10
5.8487e-10
5.94362e-10
6.33598e-10
6.13784e-10
5.36674e-10
3.18139e-10
7.56335e-11
1.39046e-12
2.86279e-19
2.23593e-18
1.29389e-17
6.58984e-17
3.23378e-16
1.43874e-15
5.36635e-15
1.66276e-14
4.41699e-14
1.03576e-13
2.17154e-13
4.08746e-13
6.96051e-13
1.08871e-12
1.59077e-12
2.19546e-12
2.881e-12
3.63614e-12
4.49926e-12
5.56177e-12
6.93761e-12
8.73672e-12
1.10629e-11
1.40746e-11
1.80968e-11
2.37499e-11
3.21558e-11
4.55748e-11
6.88175e-11
1.09684e-10
1.75514e-10
2.55388e-10
3.18641e-10
3.64778e-10
3.96538e-10
3.84542e-10
3.05341e-10
1.58199e-10
2.73526e-11
2.55847e-13
1.15181e-20
1.25577e-19
9.35136e-19
5.61184e-18
3.0983e-17
1.55947e-16
6.65922e-16
2.33896e-15
6.85734e-15
1.72117e-14
3.77111e-14
7.33266e-14
1.29002e-13
2.09681e-13
3.20017e-13
4.62396e-13
6.35894e-13
8.40387e-13
1.08329e-12
1.38364e-12
1.77137e-12
2.28344e-12
2.96158e-12
3.85486e-12
5.03659e-12
6.63699e-12
8.88836e-12
1.22139e-11
1.75048e-11
2.66292e-11
4.24858e-11
6.77859e-11
1.00919e-10
1.34142e-10
1.56656e-10
1.58532e-10
1.22935e-10
5.82117e-11
7.18677e-12
3.38544e-14
3.39057e-22
5.35623e-21
5.39558e-20
3.99228e-19
2.55522e-18
1.47996e-17
7.3525e-17
2.98348e-16
9.85883e-16
2.71004e-15
6.35217e-15
1.30071e-14
2.38478e-14
4.00441e-14
6.26407e-14
9.23987e-14
1.29972e-13
1.76494e-13
2.34124e-13
3.06218e-13
3.98142e-13
5.18455e-13
6.78507e-13
8.9163e-13
1.17396e-12
1.54875e-12
2.05515e-12
2.76202e-12
3.79802e-12
5.43105e-12
8.18532e-12
1.2833e-11
2.00304e-11
2.93364e-11
3.82486e-11
4.30547e-11
3.46578e-11
1.53015e-11
1.46445e-12
3.56668e-15
7.13534e-24
1.68854e-22
2.42662e-21
2.335e-20
1.79499e-19
1.21452e-18
7.08926e-18
3.37091e-17
1.27993e-16
3.94509e-16
1.01545e-15
2.24492e-15
4.37253e-15
7.66912e-15
1.2335e-14
1.85026e-14
2.63388e-14
3.61838e-14
4.8544e-14
6.40898e-14
8.38038e-14
1.09183e-13
1.42347e-13
1.85978e-13
2.43251e-13
3.18055e-13
4.16067e-13
5.47043e-13
7.28627e-13
9.94472e-13
1.41156e-12
2.09894e-12
3.21518e-12
4.85081e-12
6.76296e-12
8.15351e-12
7.08527e-12
3.05798e-12
2.64943e-13
2.9575e-16
1.06015e-25
3.8193e-24
8.2613e-23
1.10133e-21
1.06644e-20
8.61282e-20
5.95725e-19
3.35655e-18
1.4888e-17
5.24416e-17
1.51032e-16
3.66527e-16
7.69197e-16
1.42726e-15
2.38952e-15
3.6832e-15
5.33548e-15
7.39636e-15
9.95706e-15
1.31552e-14
1.71753e-14
2.22594e-14
2.87227e-14
3.69674e-14
4.74767e-14
6.08143e-14
7.77175e-14
9.93956e-14
1.28117e-13
1.68233e-13
2.28144e-13
3.23446e-13
4.78548e-13
7.17702e-13
1.02218e-12
1.24821e-12
1.17205e-12
5.2006e-13
4.76195e-14
1.28406e-17
1.05357e-27
5.88901e-26
2.03774e-24
4.07203e-23
5.30996e-22
5.31404e-21
4.41819e-20
2.98024e-19
1.5654e-18
6.39274e-18
2.08387e-17
5.59379e-17
1.27182e-16
2.51257e-16
4.41713e-16
7.0694e-16
1.05131e-15
1.48025e-15
2.006e-15
2.65116e-15
3.44849e-15
4.43721e-15
5.66057e-15
7.16671e-15
9.00967e-15
1.12515e-14
1.39731e-14
1.73073e-14
2.1517e-14
2.71411e-14
3.52519e-14
4.788e-14
6.84639e-14
1.01107e-13
1.43805e-13
1.7393e-13
1.71502e-13
7.91988e-14
8.05385e-15
6.91501e-19
5.23236e-30
5.12024e-28
3.20546e-26
1.092e-24
2.13595e-23
2.84126e-22
2.94066e-21
2.42298e-20
1.53511e-19
7.39498e-19
2.76563e-18
8.28911e-18
2.05e-17
4.32431e-17
8.01206e-17
1.33557e-16
2.047e-16
2.94031e-16
4.02614e-16
5.33166e-16
6.89962e-16
8.77793e-16
1.10101e-15
1.36272e-15
1.66391e-15
2.00352e-15
2.37937e-15
2.7915e-15
3.25277e-15
3.81911e-15
4.61766e-15
5.89928e-15
8.10284e-15
1.17334e-14
1.63561e-14
1.95495e-14
2.25103e-14
1.09162e-14
1.21996e-15
8.93806e-20
5.0108e-36
3.16735e-31
8.28417e-29
7.4278e-27
2.84148e-25
5.8907e-24
8.37465e-23
9.15351e-22
7.52628e-21
4.49893e-20
1.98389e-19
6.55429e-19
1.76125e-18
3.99053e-18
7.83635e-18
1.36861e-17
2.17427e-17
3.20458e-17
4.4614e-17
5.96501e-17
7.76877e-17
9.95227e-17
1.25911e-16
1.57318e-16
1.93968e-16
2.36221e-16
2.85713e-16
3.46959e-16
4.28358e-16
5.33718e-16
6.69954e-16
8.54033e-16
1.12302e-15
1.54722e-15
2.23735e-15
3.15337e-15
1.64071e-15
7.41228e-16
9.0527e-17
7.99335e-21
)
;

boundaryField
{
    leftWall
    {
        type            zeroGradient;
    }
    rightWall
    {
        type            zeroGradient;
    }
    lowerWall
    {
        type            zeroGradient;
    }
    atmosphere
    {
        type            inletOutlet;
        inletValue      uniform 0;
        value           nonuniform List<scalar> 
45
(
0
0
0
0
0
0
0
0
0
0
0
0
0
0
0
1.98389e-19
6.55429e-19
1.76125e-18
3.99053e-18
7.83635e-18
1.36861e-17
2.17427e-17
3.20458e-17
4.4614e-17
5.96501e-17
7.76877e-17
9.95227e-17
1.25911e-16
1.57318e-16
1.93968e-16
2.36221e-16
2.85713e-16
3.46959e-16
4.28358e-16
5.33718e-16
6.69954e-16
8.54033e-16
1.12302e-15
1.54722e-15
2.23735e-15
3.15337e-15
1.64071e-15
7.41228e-16
9.0527e-17
7.99335e-21
)
;
    }
    defaultFaces
    {
        type            empty;
    }
    procBoundary3to1
    {
        type            processor;
        value           nonuniform List<scalar> 
45
(
1.63284e-12
3.79457e-12
7.73013e-12
1.43825e-11
2.49721e-11
4.52306e-11
8.49474e-11
1.51807e-10
2.66305e-10
4.12369e-10
4.67498e-10
4.85683e-10
4.8255e-10
4.49366e-10
4.48143e-10
6.22234e-10
8.63982e-10
9.01392e-10
9.01392e-10
7.44276e-10
4.24736e-10
4.04726e-10
4.36924e-10
5.27287e-10
5.15096e-10
4.66613e-10
3.45327e-10
2.26408e-10
4.62355e-10
5.40729e-09
6.46601e-09
2.00039e-09
2.25527e-08
2.05545e-07
2.16144e-06
1.27084e-05
7.64945e-05
0.0707667
0.769522
0.999648
0.999977
0.999995
0.999996
0.999998
0.53489
)
;
    }
    procBoundary3to2
    {
        type            processor;
        value           nonuniform List<scalar> 
43
(
1.24411e-12
2.45757e-12
4.72464e-12
8.70332e-12
1.48075e-11
2.26365e-11
3.08657e-11
3.7687e-11
4.18173e-11
4.0872e-11
3.65731e-11
3.28737e-11
2.94613e-11
2.6712e-11
2.47489e-11
2.30681e-11
2.09813e-11
1.75646e-11
1.2598e-11
7.43402e-12
3.57057e-12
1.40589e-12
4.49067e-13
1.10069e-13
2.10886e-14
3.59486e-15
5.05137e-16
5.62956e-17
5.62768e-18
5.23181e-19
4.34853e-20
2.9519e-21
1.60962e-22
7.08889e-24
2.44384e-25
6.28813e-27
1.15147e-28
1.41212e-30
1.0281e-32
1.62348e-34
1.02792e-36
1.76525e-40
5.24248e-51
)
;
    }
}


// ************************************************************************* //
