/*--------------------------------*- C++ -*----------------------------------*\
| =========                 |                                                 |
| \\      /  F ield         | OpenFOAM: The Open Source CFD Toolbox           |
|  \\    /   O peration     | Version:  5.0                                   |
|   \\  /    A nd           | Web:      www.OpenFOAM.org                      |
|    \\/     M anipulation  |                                                 |
\*---------------------------------------------------------------------------*/
FoamFile
{
    version     2.0;
    format      ascii;
    class       volScalarField;
    location    "0.55";
    object      epsilon;
}
// * * * * * * * * * * * * * * * * * * * * * * * * * * * * * * * * * * * * * //

dimensions      [0 2 -3 0 0 0 0];

internalField   nonuniform List<scalar> 
1935
(
0.767004
0.763422
0.762293
0.764711
0.771617
0.783709
0.801154
0.823804
0.851042
0.881797
0.914569
0.947507
0.978531
1.0055
1.02639
1.03947
1.04246
1.03433
1.01496
0.985279
0.947094
0.902746
0.854742
0.805457
0.756119
0.70721
0.658783
0.610919
0.56378
0.517653
0.473092
0.43075
0.391219
0.354913
0.321997
0.292369
0.265652
0.241199
0.218097
0.195181
0.171134
0.144794
0.115876
0.794777
0.82086
0.846195
0.871059
0.793253
0.821738
0.849917
0.878075
0.79478
0.826347
0.85813
0.89039
0.800635
0.83615
0.872503
0.909828
0.811963
0.85247
0.894375
0.937659
0.82949
0.876054
0.924631
0.974928
0.853506
0.907321
0.963777
1.0222
0.883873
0.946169
1.01177
1.07951
0.919927
0.991915
1.06795
1.14629
0.960464
1.04327
1.13102
1.22133
1.00376
1.09834
1.199
1.30265
1.04763
1.15466
1.26922
1.38754
1.08959
1.20936
1.33854
1.47271
1.12702
1.25936
1.40347
1.5545
1.15749
1.30169
1.46046
1.62888
1.17796
1.33209
1.50412
1.68945
1.18561
1.34681
1.52932
1.72939
1.17871
1.34302
1.53172
1.74233
1.15676
1.31947
1.50875
1.72375
1.12075
1.27695
1.46049
1.67231
1.07308
1.21832
1.38997
1.59051
1.01714
1.14815
1.30291
1.48489
0.956607
1.0718
1.2067
1.36509
0.89498
0.994248
1.10882
1.24175
0.834862
0.91979
1.01521
1.12387
0.77697
0.850256
0.930104
1.01798
0.721143
0.785242
0.853184
0.925533
0.666955
0.723751
0.782684
0.843738
0.614263
0.664908
0.716821
0.769565
0.56311
0.608458
0.654507
0.700758
0.513817
0.554358
0.595365
0.636293
0.466974
0.503025
0.539451
0.575728
0.423199
0.455042
0.487228
0.519285
0.382965
0.410916
0.439193
0.467387
0.346496
0.37092
0.395654
0.420348
0.313723
0.335024
0.356615
0.3782
0.284271
0.302862
0.321728
0.340618
0.25745
0.273712
0.290254
0.306859
0.232245
0.246471
0.261013
0.275689
0.2073
0.219599
0.232294
0.24524
0.180981
0.191126
0.201773
0.212831
0.151669
0.158903
0.166682
0.17499
0.118619
0.121578
0.124852
0.128476
0.897219
0.925061
0.953867
0.984344
1.01717
1.05295
1.09229
1.13547
1.18221
1.23154
1.28175
1.33056
1.37562
1.41513
1.44857
1.47716
1.50437
1.53612
1.58093
1.64956
1.75487
1.912
2.13831
2.45074
2.8636
3.37411
3.99872
4.78603
5.84979
7.37262
10.1571
14.1513
19.0018
25.6828
33.7621
42.4579
50.8863
58.334
66.1386
103.973
0.908191
0.940781
0.974919
1.01114
1.05025
1.09305
1.14025
1.1922
1.24855
1.30815
1.3691
1.42916
1.48647
1.5404
1.59204
1.64445
1.70243
1.77263
1.86435
1.99136
2.17344
2.43551
2.80275
3.28641
3.84051
4.38202
4.92737
5.45213
6.18414
7.45868
9.94645
13.7364
19.1392
26.1533
34.421
43.3287
52.144
60.2848
69.4069
113.025
0.925352
0.963473
1.00339
1.04579
1.09159
1.14183
1.1975
1.25911
1.32646
1.3986
1.47413
1.55207
1.63288
1.71929
1.81627
1.92983
2.0648
2.22268
2.40343
2.61621
2.89055
3.26833
3.77874
4.36491
4.84286
5.03815
5.12847
5.35124
6.04668
7.55108
10.2552
14.396
20.1196
27.3672
35.8217
44.9329
54.037
62.6523
72.8154
121.924
0.950391
0.994652
1.04085
1.08972
1.14242
1.2004
1.26513
1.33764
1.41836
1.50744
1.60561
1.71561
1.84363
1.99964
2.19585
2.44245
2.73979
3.06778
3.38581
3.67378
3.98175
4.38805
4.8724
5.1641
5.00019
4.78846
4.82925
5.29498
6.36357
8.28293
11.3492
15.8064
21.801
29.3134
38.0795
47.546
57.0107
65.879
76.1829
127.912
0.98469
1.03575
1.08858
1.14405
1.20372
1.26972
1.34441
1.42997
1.52859
1.64341
1.78018
1.94971
2.16912
2.46036
2.84456
3.33197
3.90472
4.48619
4.93167
5.14744
5.25107
5.36693
5.35652
4.91215
4.58075
4.57498
4.93994
5.77916
7.25635
9.58322
12.9992
17.742
24.0165
31.9112
41.2473
51.4971
61.8441
71.2075
80.2809
129.76
1.02933
1.0878
1.14754
1.20963
1.2763
1.35081
1.43711
1.53989
1.66524
1.82253
2.02773
2.30691
2.6955
3.22931
3.92685
4.77002
5.68188
6.46308
6.76076
6.4678
5.99246
5.53334
4.94172
4.5591
4.51906
4.83721
5.56971
6.81105
8.69039
11.3725
15.068
20.0498
26.645
35.1354
45.4653
57.2747
69.3998
80.9288
87.4451
128.312
1.08492
1.15145
1.21838
1.28716
1.36104
1.44503
1.54592
1.67304
1.84095
2.07107
2.39816
2.8774
3.57409
4.53094
5.719
7.0095
8.16539
8.58245
7.77991
6.74016
5.79401
5.07168
4.66236
4.60742
4.91194
5.60504
6.73626
8.37041
10.5938
13.5411
17.4328
22.6236
29.6355
39.1401
50.8922
63.6967
75.2095
86.819
95.5092
132.42
1.1516
1.22698
1.30154
1.37726
1.45879
1.55383
1.67387
1.83744
2.07335
2.4245
2.96201
3.79573
5.03426
6.69057
8.55689
10.1658
10.7049
8.92033
7.2604
6.0654
5.25023
4.8367
4.79428
5.11515
5.8108
6.90315
8.41509
10.3755
12.8437
15.9582
19.9826
25.3706
32.7048
42.2077
53.646
65.8158
77.1739
89.1969
106.413
148.066
1.22901
1.31427
1.39719
1.48029
1.56991
1.6778
1.82506
2.04352
2.37943
2.91298
3.78321
5.17987
7.23027
9.75285
11.9507
12.3309
9.89897
7.68548
6.27711
5.4299
5.02413
5.02563
5.40785
6.14802
7.24602
8.70298
10.5145
12.6889
15.2835
18.4859
22.5074
27.7236
34.7275
43.7739
54.9722
67.4556
79.8555
92.7481
113.321
147.187
1.31613
1.41265
1.50492
1.59586
1.69366
1.81757
2.00205
2.29136
2.75532
3.53063
4.85274
6.9814
9.93757
12.9266
13.7341
10.9556
8.36459
6.65159
5.64054
5.19068
5.22659
5.71144
6.58257
7.74528
9.18989
10.9122
12.8935
15.154
17.6883
20.6447
24.3822
29.317
36.0965
45.0877
56.2465
69.2979
83.1668
97.1717
116.56
153.319
1.41113
1.5205
1.62327
1.72224
1.82838
1.97114
2.19668
2.56093
3.16191
4.20819
6.03686
8.92341
12.5645
14.7672
11.9933
9.07836
7.11452
5.91636
5.35616
5.35397
5.87967
6.91584
8.34746
9.87756
11.5472
13.4014
15.2975
17.1716
19.231
21.7064
24.929
29.3399
35.5913
44.2274
55.5572
69.6114
85.408
101.109
119.592
171.37
1.51135
1.63522
1.74957
1.85631
1.96846
2.12698
2.38901
2.81515
3.53066
4.81923
7.10796
10.6112
14.16
12.8874
9.80286
7.6276
6.24631
5.54521
5.44744
5.91886
6.94897
8.50945
10.3695
12.3725
14.0775
15.498
16.6981
17.8548
19.2454
21.1169
23.7646
27.6145
33.2974
41.5155
53.0081
68.0483
85.7967
103.807
123.946
199.772
1.61363
1.75408
1.88157
1.99601
2.10834
2.2704
2.55517
3.01934
3.79872
5.22677
7.78444
11.5798
13.6625
10.8887
8.32847
6.692
5.79981
5.55369
5.9106
6.85633
8.35583
10.2674
12.1301
13.9422
15.3214
16.1213
16.6858
17.3061
18.215
19.6343
21.8349
25.2227
30.4272
38.3028
49.8531
65.6175
84.9894
105.518
128.843
228.758
1.71446
1.87434
2.01802
2.14254
2.25278
2.40495
2.6927
3.17261
3.95819
5.37461
7.8679
11.3973
12.0056
9.27323
7.34532
6.19696
5.73481
5.90925
6.7059
8.10741
10.0348
11.9265
13.1165
14.115
14.8727
15.3231
15.6625
16.13
16.9158
18.1992
20.2148
23.3435
28.2258
35.8672
47.3831
63.5566
84.0576
106.949
134.399
254.388
1.80957
1.99199
2.15643
2.29629
2.40951
2.54942
2.82043
3.2884
4.03308
5.29145
7.36719
10.104
10.4211
8.31652
6.84805
6.08268
5.98717
6.54776
7.75693
9.57802
11.5679
12.57
12.9506
13.2188
13.496
13.8045
14.2391
14.9222
15.9588
17.4599
19.6063
22.7477
27.5489
35.0908
46.5298
62.8348
83.9974
108.743
140.177
276.94
1.8917
2.09955
2.2899
2.4527
2.57833
2.70615
2.93464
3.34437
4.00588
5.0606
6.70132
8.89444
9.69835
8.0032
6.75089
6.25424
6.4624
7.37324
8.95217
10.7903
11.791
11.9849
11.853
11.78
11.9295
12.3672
13.1458
14.3051
15.8656
17.8597
20.4047
23.8163
28.7943
36.3798
47.7474
63.9839
85.3751
111.2
145.506
295.764
1.95218
2.18648
2.40636
2.59799
2.74983
2.88047
3.05281
3.34712
3.85489
4.66611
5.84553
7.37818
8.6899
8.00077
6.87943
6.57568
7.02529
8.25908
9.79553
10.6156
10.7889
10.6011
10.3865
10.3919
10.7623
11.5861
12.9119
14.7344
17.0005
19.6636
22.7786
26.6327
31.9575
39.6975
51.015
67.0629
88.3384
114.506
150.266
308.571
1.98207
2.24104
2.4917
2.71733
2.90351
3.05548
3.20267
3.39314
3.71131
4.23211
4.96391
5.83936
6.68917
7.22704
6.95223
6.87737
7.46774
8.52049
9.03268
9.21662
9.18607
9.11077
9.17211
9.53513
10.3498
11.7441
13.7815
16.4169
19.5173
22.9534
26.7223
31.0904
36.8174
44.7229
55.9493
71.7033
92.6413
118.655
154.458
310.856
1.97402
2.25231
2.5313
2.79324
3.02154
3.21056
3.37272
3.5292
3.71764
3.99798
4.3915
4.84696
5.28186
5.64873
5.9178
6.15666
6.62723
7.08672
7.43868
7.69806
7.91383
8.17968
8.6284
9.42933
10.7837
12.8763
15.7767
19.3719
23.4232
27.7062
32.1572
37.022
43.0772
51.0046
61.9481
77.2105
97.6794
123.523
158.248
296.526
1.92421
2.2127
2.51287
2.80807
3.08125
3.321
3.52745
3.70937
3.87922
4.0497
4.24873
4.48755
4.74432
5.01061
5.28758
5.58869
5.95529
6.352
6.74052
7.12076
7.52659
8.03582
8.78785
9.99967
11.9503
14.881
18.8304
23.5658
28.7015
33.897
39.0216
44.2951
50.4628
58.0836
68.355
82.7485
102.58
128.688
160.966
270.952
1.83352
2.11973
2.42846
2.74617
3.0574
3.34892
3.6141
3.85318
4.07017
4.26709
4.44426
4.6277
4.83969
5.0931
5.38303
5.71053
6.0809
6.47428
6.86859
7.2757
7.74358
8.37378
9.35488
10.9891
13.657
17.6404
22.8889
28.9834
35.3441
41.4973
47.2552
52.8573
58.7518
65.5924
74.6795
87.659
106.336
132.053
156.844
242.431
1.70848
1.9781
2.27832
2.59997
2.93096
3.25906
3.57506
3.87432
4.15608
4.42294
4.68076
4.93612
5.20418
5.49221
5.80563
6.14426
6.50011
6.85525
7.20283
7.57104
8.03633
8.74941
9.97928
12.147
15.7508
21.075
27.9024
35.5689
43.2565
50.3582
56.6477
62.4072
67.6193
73.3053
80.8652
91.9925
108.652
130.895
147.856
216.228
1.56085
1.80071
2.07435
2.37713
2.70125
3.03729
3.37635
3.71188
4.04048
4.36271
4.68325
5.00662
5.33141
5.65904
5.98956
6.31639
6.62888
6.91989
7.20185
7.52618
8.00588
8.85295
10.4384
13.3304
18.1401
25.0898
33.7096
43.0819
52.1107
60.0524
66.696
72.289
76.6636
81.2118
87.3832
96.5799
110.001
126.53
145.049
190.584
1.40531
1.60668
1.83944
2.10259
2.39232
2.70264
3.02658
3.35758
3.69059
4.02271
4.35305
4.67826
5.00432
5.32587
5.63496
5.92183
6.17946
6.41264
6.6523
6.97505
7.53225
8.60351
10.6802
14.4943
20.7233
29.4703
39.9033
50.9476
61.2522
69.7239
76.2917
81.1892
84.726
88.3652
93.2685
100.369
110.45
124.892
148.393
158.197
1.25562
1.4162
1.60152
1.81255
2.04819
2.30534
2.57926
2.86433
3.15484
3.44486
3.72945
4.01447
4.29584
4.56647
4.81827
5.04459
5.24579
5.43867
5.67017
6.03814
6.72949
8.09628
10.7614
15.6175
23.2838
33.8381
45.8194
57.917
68.8364
77.6578
84.105
88.0714
90.7334
93.3012
96.8251
102.391
111.879
128.084
148.907
117.545
1.12132
1.24455
1.38443
1.54216
1.71766
1.90933
2.11403
2.32737
2.54474
2.76331
2.98306
3.20013
3.41006
3.60765
3.78846
3.95182
4.10643
4.27892
4.52712
4.96391
5.8085
7.48927
10.7471
16.6468
25.4398
36.7781
49.637
62.567
74.0736
83.039
88.9794
92.2092
93.9177
95.3925
98.113
103.986
115.307
132.235
142.996
79.0504
1.00756
1.10134
1.20371
1.31546
1.43684
1.56731
1.70543
1.84911
1.99578
2.14304
2.28877
2.4303
2.56485
2.69022
2.80641
2.91841
3.04097
3.20612
3.4767
3.97485
4.94885
6.90556
10.6302
16.8368
25.9086
37.5749
50.8508
64.2253
76.0573
85.0245
90.707
93.5438
94.6149
95.536
98.3174
104.965
116.206
127.449
120.759
53.8675
0.910679
0.984051
1.06051
1.14019
1.22303
1.30864
1.39627
1.4848
1.57288
1.65908
1.74209
1.82074
1.89444
1.96396
2.03278
2.10943
2.21132
2.37153
2.65328
3.18164
4.23136
6.23823
9.87999
15.8623
24.6034
35.9398
48.985
62.2483
74.0033
83.2084
89.1846
92.1122
93.0659
93.8216
96.3442
101.737
108.293
108.432
88.2689
41.7
0.825911
0.885529
0.944974
1.00386
1.06177
1.11822
1.17262
1.22433
1.27269
1.31719
1.35758
1.39411
1.42794
1.4618
1.50104
1.55541
1.6422
1.79256
2.06752
2.57953
3.54303
5.34248
8.55428
13.8282
21.6273
31.9269
44.0129
56.527
68.1871
77.7154
84.1714
87.5249
88.654
89.0838
90.2353
92.1671
91.9465
83.0732
60.5483
34.8549
0.749398
0.799623
0.848031
0.893952
0.93674
0.975799
1.0106
1.04074
1.06597
1.08636
1.1024
1.11522
1.12694
1.14112
1.16354
1.20358
1.27703
1.41025
1.6495
2.0819
2.87183
4.31311
6.86289
11.087
17.4731
26.1541
36.6636
48.0633
59.3078
68.8396
75.6581
79.4802
80.8097
80.6809
79.9462
78.2084
72.9513
60.5116
41.5505
28.7442
0.678881
0.722234
0.763186
0.800965
0.834781
0.864002
0.888139
0.906903
0.920278
0.928614
0.93275
0.934178
0.935273
0.93964
0.952694
0.982371
1.04089
1.14783
1.33672
1.66823
2.25437
3.29592
5.11995
8.17477
12.9272
19.6491
28.1606
38.1761
48.3602
57.399
64.2466
68.3756
69.8864
69.3337
67.1943
63.1292
55.637
43.3035
29.1773
23.1941
0.613311
0.651316
0.686855
0.71913
0.747409
0.77107
0.789658
0.802945
0.810993
0.814242
0.8136
0.81056
0.807352
0.807148
0.814367
0.835191
0.878567
0.958171
1.09634
1.33169
1.73324
2.42375
3.61043
5.60448
8.78925
13.496
20.0832
28.1027
36.6716
44.692
51.1401
55.3236
57.0222
56.4169
53.762
48.9131
41.1201
30.9348
21.1258
17.1877
0.552465
0.585971
0.617219
0.645471
0.670049
0.690385
0.706071
0.716909
0.722977
0.724689
0.722863
0.718797
0.71436
0.712107
0.715451
0.728959
0.758923
0.814459
0.90964
1.06752
1.32751
1.75825
2.4773
3.67435
5.6212
8.72963
13.2447
19.0592
25.662
32.2296
37.8568
41.7997
43.6389
43.296
40.8549
36.1944
29.6862
22.1322
15.1843
11.7724
0.496593
0.52613
0.553724
0.578721
0.600522
0.618626
0.632666
0.642464
0.648075
0.649831
0.648394
0.6448
0.64051
0.637481
0.638249
0.646092
0.665326
0.701879
0.764362
0.866071
1.02861
1.28833
1.70739
2.39045
3.53185
5.37464
8.14496
11.9228
16.5055
21.3845
25.8685
29.2787
31.12
31.1515
29.2645
25.6497
20.8424
15.526
10.7034
7.56373
0.445966
0.471946
0.496306
0.518486
0.537974
0.554332
0.567242
0.576536
0.582234
0.584576
0.584056
0.581449
0.577849
0.574699
0.573841
0.577591
0.588883
0.611544
0.65082
0.714325
0.81378
0.968157
1.2093
1.59917
2.231
3.2391
4.78226
6.98022
9.81371
13.0491
16.2554
18.9154
20.5693
20.9064
19.7523
17.3352
14.1031
10.5736
7.39839
4.78568
0.40063
0.423445
0.444927
0.464605
0.482044
0.496876
0.508822
0.517728
0.523581
0.526541
0.526952
0.525367
0.522574
0.519612
0.517801
0.51877
0.52452
0.537543
0.561073
0.599534
0.659375
0.750604
0.891759
1.11023
1.44983
1.97673
2.77839
3.94315
5.51186
7.41687
9.44988
11.2926
12.6013
13.0921
12.5742
11.1678
9.18473
6.99323
5.05169
3.04693
0.360283
0.380346
0.399316
0.416797
0.432419
0.44587
0.45691
0.465395
0.471294
0.474697
0.475833
0.475079
0.472983
0.47029
0.467946
0.467107
0.469154
0.475742
0.488913
0.511312
0.546613
0.601008
0.682679
0.804355
0.985819
1.25683
1.6586
2.23918
3.03634
4.04687
5.19532
6.32622
7.23327
7.71282
7.60413
6.90596
5.7972
4.53062
3.45123
2.00518
0.324193
0.341948
0.358818
0.37446
0.388557
0.400834
0.411079
0.419153
0.425006
0.428676
0.430298
0.430111
0.428495
0.425994
0.423311
0.421291
0.420915
0.423313
0.429814
0.44209
0.46262
0.494216
0.540914
0.608627
0.706098
0.846089
1.04632
1.32876
1.7148
2.21373
2.80624
3.43145
3.98881
4.35859
4.43164
4.15512
3.59217
2.91317
2.38673
1.39773
0.291096
0.306986
0.322204
0.336449
0.349432
0.360902
0.370651
0.37853
0.384456
0.388406
0.390414
0.390598
0.389223
0.386739
0.383729
0.380862
0.378867
0.378546
0.380834
0.386942
0.398052
0.415685
0.441863
0.479356
0.532029
0.60527
0.706383
0.84455
1.02958
1.26831
1.55818
1.8796
2.19149
2.4347
2.54401
2.47049
2.21873
1.88568
1.68148
1.03672
0.258985
0.273361
0.287349
0.30068
0.313092
0.324338
0.334199
0.34249
0.349061
0.353772
0.356479
0.357094
0.355812
0.353141
0.3497
0.346102
0.342934
0.34083
0.340492
0.342538
0.347676
0.35675
0.370795
0.391129
0.419481
0.458143
0.510108
0.579087
0.66918
0.783826
0.923637
1.08317
1.24763
1.39136
1.48036
1.48142
1.38444
1.24327
1.20792
0.811895
0.224819
0.237686
0.25059
0.263329
0.275692
0.287457
0.298396
0.308288
0.316891
0.323863
0.328619
0.330389
0.3293
0.326296
0.322291
0.31797
0.313895
0.310551
0.308333
0.307652
0.308944
0.312687
0.319423
0.329792
0.344583
0.364786
0.391644
0.426662
0.471516
0.527726
0.595957
0.67481
0.759191
0.838753
0.89747
0.916735
0.887708
0.841967
0.883447
0.664695
0.1843
0.194732
0.20575
0.217331
0.229443
0.242026
0.254984
0.268162
0.281334
0.294073
0.305006
0.310839
0.310739
0.307473
0.302858
0.297875
0.293041
0.28869
0.28511
0.282576
0.28136
0.281741
0.284013
0.288498
0.295563
0.305646
0.319272
0.337066
0.359715
0.387869
0.421895
0.461423
0.504639
0.547387
0.582515
0.600876
0.598063
0.594889
0.664258
0.562265
0.132724
0.137786
0.143576
0.150308
0.158289
0.167938
0.179814
0.194669
0.213557
0.238915
0.268421
0.294995
0.298764
0.296222
0.291636
0.286445
0.281257
0.2764
0.272107
0.268581
0.266008
0.264567
0.26443
0.265766
0.268753
0.273581
0.280464
0.289639
0.301353
0.315817
0.333107
0.352978
0.374565
0.395988
0.414058
0.424915
0.428143
0.439995
0.511705
0.478716
)
;

boundaryField
{
    leftWall
    {
        Cmu             0.09;
        kappa           0.41;
        E               9.8;
        type            epsilonWallFunction;
        value           nonuniform 0();
    }
    rightWall
    {
        Cmu             0.09;
        kappa           0.41;
        E               9.8;
        type            epsilonWallFunction;
        value           nonuniform List<scalar> 
43
(
103.973
113.025
121.924
127.912
129.76
128.312
132.42
148.066
147.187
153.319
171.37
199.772
228.758
254.388
276.94
295.764
308.571
310.856
296.526
270.952
242.431
216.228
190.584
158.197
117.545
79.0504
53.8675
41.7
34.8549
28.7442
23.1941
17.1877
11.7724
7.56373
4.78568
3.04693
2.00518
1.39773
1.03672
0.811895
0.664695
0.562265
0.478716
)
;
    }
    lowerWall
    {
        Cmu             0.09;
        kappa           0.41;
        E               9.8;
        type            epsilonWallFunction;
        value           nonuniform 0();
    }
    atmosphere
    {
        type            inletOutlet;
        inletValue      uniform 0.1;
        value           nonuniform List<scalar> 
45
(
0.1
0.1
0.1
0.1
0.1
0.1
0.1
0.1
0.1
0.1
0.1
0.1
0.1
0.1
0.1
0.1
0.294995
0.298764
0.296222
0.291636
0.286445
0.281257
0.2764
0.272107
0.268581
0.266008
0.264567
0.26443
0.265766
0.268753
0.273581
0.280464
0.289639
0.301353
0.315817
0.333107
0.352978
0.374565
0.395988
0.414058
0.424915
0.428143
0.439995
0.511705
0.478716
)
;
    }
    defaultFaces
    {
        type            empty;
    }
    procBoundary3to1
    {
        type            processor;
        value           nonuniform List<scalar> 
45
(
0.771794
0.797985
0.8222
0.845292
0.867514
0.890444
0.914328
0.938598
0.963889
0.990866
1.02025
1.05242
1.08768
1.12588
1.16633
1.20771
1.24814
1.28551
1.31792
1.34427
1.36476
1.38135
1.39798
1.42039
1.45568
1.512
1.59894
1.72848
1.91603
2.1834
2.56685
3.11202
3.90554
5.11187
7.01587
10.2362
14.6539
19.414
25.7734
33.6239
42.0471
50.008
56.6979
63.235
95.6407
)
;
    }
    procBoundary3to2
    {
        type            processor;
        value           nonuniform List<scalar> 
43
(
0.737129
0.73188
0.728564
0.728115
0.731313
0.738724
0.750504
0.766483
0.786116
0.808482
0.832323
0.856121
0.878198
0.896856
0.910522
0.917885
0.917904
0.909571
0.892912
0.868648
0.838018
0.802626
0.764186
0.723936
0.682645
0.640706
0.598453
0.556132
0.514057
0.472743
0.432827
0.394949
0.359635
0.327224
0.297826
0.271308
0.247304
0.22522
0.204253
0.183429
0.161721
0.138349
0.113359
)
;
    }
}


// ************************************************************************* //
