/*--------------------------------*- C++ -*----------------------------------*\
| =========                 |                                                 |
| \\      /  F ield         | OpenFOAM: The Open Source CFD Toolbox           |
|  \\    /   O peration     | Version:  5.0                                   |
|   \\  /    A nd           | Web:      www.OpenFOAM.org                      |
|    \\/     M anipulation  |                                                 |
\*---------------------------------------------------------------------------*/
FoamFile
{
    version     2.0;
    format      ascii;
    class       volScalarField;
    location    "0.55";
    object      k;
}
// * * * * * * * * * * * * * * * * * * * * * * * * * * * * * * * * * * * * * //

dimensions      [0 2 -2 0 0 0 0];

internalField   nonuniform List<scalar> 
1935
(
0.314426
0.309802
0.305956
0.303189
0.301756
0.301834
0.303483
0.306671
0.311255
0.316986
0.323525
0.330457
0.337323
0.343646
0.348964
0.352861
0.354867
0.354715
0.352315
0.34778
0.341411
0.333643
0.324979
0.31592
0.306779
0.297696
0.288674
0.279661
0.270586
0.261383
0.25204
0.242583
0.233056
0.223488
0.213871
0.204139
0.194152
0.183674
0.172371
0.159807
0.145492
0.129026
0.110415
0.319102
0.323362
0.327412
0.331346
0.314835
0.319528
0.324102
0.328651
0.311467
0.316721
0.321952
0.327246
0.309331
0.315302
0.321348
0.327532
0.30871
0.315575
0.322593
0.329796
0.309785
0.317726
0.325888
0.334254
0.312634
0.321845
0.33133
0.341008
0.317223
0.3279
0.338893
0.350036
0.323396
0.335731
0.348417
0.361195
0.330883
0.345053
0.359617
0.37421
0.339307
0.355462
0.372079
0.388676
0.348204
0.366458
0.38528
0.404065
0.357051
0.377467
0.398612
0.419767
0.365299
0.387872
0.411414
0.435107
0.372412
0.397055
0.422984
0.449331
0.377776
0.404226
0.432381
0.461365
0.380825
0.40867
0.43869
0.470067
0.381164
0.409818
0.441112
0.474355
0.378618
0.407353
0.439121
0.473414
0.37328
0.401299
0.432594
0.466887
0.365514
0.392047
0.421889
0.454997
0.355903
0.380317
0.407831
0.438601
0.345139
0.367042
0.391606
0.419115
0.333929
0.353179
0.37453
0.398263
0.322855
0.339613
0.357783
0.37769
0.312162
0.326845
0.342311
0.358757
0.301865
0.314929
0.328296
0.34205
0.291846
0.303697
0.31552
0.327317
0.281971
0.292894
0.303612
0.314049
0.272114
0.282325
0.292221
0.301709
0.262194
0.271821
0.281095
0.289907
0.2522
0.261309
0.270068
0.278362
0.242156
0.250783
0.259084
0.266946
0.232089
0.240258
0.248134
0.25561
0.221992
0.229726
0.237204
0.244328
0.211803
0.219125
0.226232
0.233034
0.201372
0.208302
0.215064
0.221574
0.190447
0.196989
0.203418
0.209658
0.178646
0.184764
0.190837
0.196798
0.165453
0.171029
0.176643
0.182241
0.150242
0.155012
0.159908
0.164898
0.132414
0.135891
0.139547
0.14338
0.111783
0.113221
0.114776
0.116462
0.335495
0.339993
0.344792
0.350067
0.355977
0.362647
0.37016
0.378502
0.38753
0.396953
0.406348
0.415213
0.423055
0.429505
0.434412
0.437915
0.440485
0.442933
0.446361
0.45201
0.461085
0.47463
0.493331
0.517003
0.544154
0.570935
0.595002
0.616484
0.641552
0.681135
0.77274
0.903648
1.05773
1.25718
1.47422
1.6718
1.80742
1.82556
1.63165
0.870108
0.333544
0.33894
0.344755
0.351147
0.358295
0.36635
0.375399
0.385417
0.396224
0.407478
0.418714
0.429429
0.439209
0.447854
0.455449
0.46237
0.46923
0.476833
0.486208
0.498727
0.51617
0.540418
0.572581
0.611202
0.648484
0.673929
0.686304
0.684608
0.686022
0.710043
0.786348
0.908654
1.08075
1.28959
1.51029
1.71075
1.85158
1.87763
1.69154
0.920259
0.333015
0.339412
0.34629
0.353836
0.362249
0.371711
0.382331
0.394083
0.406771
0.420052
0.433507
0.446792
0.459804
0.472796
0.486357
0.50122
0.517916
0.536429
0.556331
0.578005
0.60395
0.637651
0.680346
0.72411
0.749514
0.741438
0.715587
0.690744
0.689375
0.726091
0.812919
0.950305
1.133
1.34651
1.56815
1.7682
1.90893
1.93566
1.75082
0.968369
0.334278
0.341744
0.349724
0.358422
0.368078
0.378923
0.391107
0.404633
0.419345
0.434995
0.451398
0.468653
0.487351
0.508607
0.533813
0.56406
0.599142
0.636341
0.670542
0.698664
0.725013
0.756732
0.791085
0.803385
0.769996
0.725286
0.693827
0.685983
0.708484
0.768848
0.873725
1.02377
1.21317
1.42907
1.65094
1.84951
1.9862
2.00383
1.80269
1.00068
0.337629
0.346223
0.355308
0.365117
0.375947
0.388104
0.401817
0.417178
0.43418
0.452865
0.47358
0.497313
0.525829
0.561409
0.606084
0.660458
0.721988
0.782293
0.826956
0.846362
0.85069
0.851662
0.838229
0.782694
0.730963
0.700805
0.692949
0.710721
0.759012
0.842546
0.964233
1.1238
1.31729
1.53526
1.75935
1.96022
2.09532
2.09835
1.85244
1.01024
0.343278
0.353045
0.363214
0.374057
0.385953
0.399318
0.414526
0.43189
0.451754
0.474761
0.502281
0.536817
0.581779
0.640241
0.713023
0.797136
0.884454
0.956969
0.986192
0.962312
0.916325
0.865771
0.798427
0.744089
0.714178
0.707844
0.726005
0.770648
0.843794
0.946824
1.08054
1.24557
1.44159
1.66386
1.8957
2.10881
2.24904
2.25117
1.93074
1.0033
0.351328
0.362309
0.37353
0.385313
0.398145
0.412605
0.429315
0.449011
0.472868
0.502628
0.541354
0.594091
0.666197
0.7597
0.869516
0.98302
1.08097
1.11931
1.06274
0.978881
0.892517
0.817117
0.762765
0.733998
0.730153
0.751061
0.79675
0.866786
0.960249
1.07665
1.21697
1.38447
1.58384
1.81852
2.06382
2.27479
2.38165
2.36509
2.0495
1.01597
0.361771
0.374023
0.386277
0.398912
0.412538
0.427972
0.446255
0.469042
0.498819
0.539131
0.596013
0.678415
0.792856
0.935361
1.08536
1.20827
1.25195
1.13459
1.01101
0.911753
0.834081
0.783127
0.758059
0.758442
0.783746
0.83291
0.903837
0.993759
1.10048
1.22398
1.36698
1.53586
1.7362
1.95879
2.18474
2.36977
2.46126
2.43318
2.19865
1.10786
0.374488
0.388104
0.401409
0.414819
0.42907
0.445335
0.465679
0.492978
0.530986
0.586264
0.669949
0.794799
0.963467
1.15343
1.30725
1.33784
1.18604
1.03081
0.921838
0.847211
0.801122
0.782635
0.790325
0.822225
0.87647
0.95019
1.03961
1.14127
1.25369
1.37975
1.52025
1.67966
1.86491
2.06855
2.28052
2.46258
2.56189
2.53122
2.30785
1.10362
0.389239
0.404358
0.418774
0.432893
0.447575
0.464792
0.488
0.520906
0.568894
0.642938
0.760379
0.934132
1.15261
1.35339
1.40919
1.24356
1.07002
0.944301
0.861506
0.815603
0.80285
0.82066
0.864155
0.926218
1.00389
1.09394
1.19246
1.29755
1.40585
1.52019
1.64886
1.79786
1.97526
2.17517
2.38077
2.56632
2.68208
2.65413
2.37643
1.12694
0.405641
0.422442
0.438063
0.452841
0.467883
0.486297
0.512598
0.551133
0.609299
0.703479
0.856112
1.07464
1.3211
1.4594
1.30298
1.115
0.976077
0.882488
0.830557
0.817018
0.840052
0.897243
0.979025
1.06498
1.15607
1.25246
1.34483
1.42922
1.51423
1.60754
1.7175
1.85157
2.01795
2.21446
2.42752
2.63447
2.78248
2.77406
2.47149
1.20034
0.423183
0.441869
0.458813
0.474208
0.489352
0.50868
0.537689
0.580622
0.646961
0.758639
0.941603
1.19297
1.42046
1.35799
1.16503
1.01531
0.910735
0.849699
0.830111
0.850491
0.909192
1.0019
1.11065
1.22358
1.31478
1.38564
1.43995
1.48699
1.5397
1.60738
1.69794
1.81906
1.97824
2.17611
2.40609
2.64508
2.83636
2.86569
2.56616
1.32785
0.441288
0.462137
0.480626
0.496693
0.511357
0.530366
0.560979
0.60657
0.677282
0.798689
0.998472
1.26349
1.40291
1.24089
1.07061
0.9507
0.876884
0.846822
0.859259
0.912864
1.00331
1.11854
1.22765
1.32813
1.3986
1.43313
1.45069
1.46692
1.49369
1.54053
1.61577
1.72757
1.88372
2.08773
2.3379
2.61119
2.84818
2.92616
2.65409
1.45836
0.459326
0.482752
0.503238
0.520399
0.534531
0.551916
0.582334
0.629077
0.699793
0.81951
1.01397
1.26276
1.31715
1.14366
1.0077
0.917371
0.872165
0.871441
0.914593
0.998883
1.1163
1.22985
1.29879
1.35112
1.38355
1.3931
1.39144
1.39245
1.4071
1.44432
1.51241
1.62004
1.77624
1.98883
2.25778
2.56103
2.83797
2.96587
2.73781
1.57006
0.476524
0.503003
0.526152
0.545187
0.559621
0.575402
0.603681
0.649094
0.716192
0.823349
0.989382
1.1928
1.22793
1.08676
0.977482
0.912043
0.892396
0.919012
0.990464
1.10152
1.22098
1.28
1.29877
1.30475
1.3037
1.29676
1.29014
1.29229
1.31081
1.35247
1.42438
1.53515
1.69543
1.91734
2.20047
2.52443
2.83025
2.99861
2.8137
1.66525
0.49171
0.521693
0.548251
0.570227
0.586297
0.600801
0.624388
0.663989
0.724037
0.81513
0.95
1.12001
1.18798
1.07184
0.975395
0.928633
0.931152
0.982989
1.07956
1.19039
1.24774
1.25453
1.23672
1.21475
1.19675
1.18594
1.1861
1.20159
1.23639
1.29425
1.38001
1.50139
1.6707
1.90043
2.19081
2.52341
2.84286
3.03366
2.8763
1.74465
0.503498
0.537202
0.567701
0.593424
0.612961
0.628243
0.645951
0.673907
0.720179
0.791618
0.891742
1.01694
1.12106
1.07676
0.989486
0.957532
0.978921
1.05494
1.14867
1.19381
1.19687
1.17383
1.14226
1.11478
1.09812
1.09634
1.11284
1.15008
1.2091
1.29039
1.39606
1.5324
1.71253
1.94693
2.23677
2.56603
2.88331
3.07707
2.92738
1.80365
0.510468
0.54775
0.582428
0.612591
0.636605
0.654996
0.670775
0.688696
0.717265
0.763505
0.827408
0.902717
0.975446
1.02066
0.998904
0.986312
1.02064
1.08574
1.11114
1.11334
1.09876
1.07567
1.05246
1.03626
1.03319
1.04902
1.08831
1.15256
1.2399
1.34736
1.47438
1.6258
1.81465
2.04844
2.32964
2.64514
2.94757
3.129
2.96855
1.831
0.511423
0.551685
0.590328
0.625273
0.654694
0.677997
0.696506
0.712295
0.729197
0.753645
0.788086
0.827977
0.866148
0.897484
0.918612
0.933635
0.964028
0.990382
1.00623
1.01248
1.01067
1.00403
0.997333
0.996839
1.01062
1.04748
1.1134
1.20804
1.32555
1.45919
1.60582
1.76897
1.96079
2.18617
2.44953
2.74172
3.02086
3.18362
2.9965
1.80286
0.505647
0.547807
0.589631
0.629076
0.664236
0.693933
0.718259
0.738162
0.754923
0.770008
0.786858
0.807199
0.829016
0.850686
0.871436
0.891854
0.915144
0.937918
0.956476
0.969532
0.976965
0.980177
0.98313
0.993445
1.02255
1.08251
1.17917
1.30782
1.45692
1.6154
1.77794
1.9469
2.13253
2.33857
2.57251
2.83059
3.07972
3.22461
2.96802
1.70997
0.493088
0.535586
0.579125
0.621884
0.662037
0.698161
0.729633
0.756564
0.779423
0.798509
0.814119
0.829236
0.846053
0.865078
0.885289
0.906399
0.928502
0.949292
0.965881
0.977216
0.983328
0.985971
0.990485
1.00763
1.05325
1.14194
1.27616
1.44342
1.62482
1.80528
1.97817
2.14592
2.31258
2.48584
2.67681
2.88714
3.09404
3.20795
2.80721
1.5917
0.474498
0.515445
0.558615
0.602559
0.64568
0.686536
0.724142
0.758048
0.788209
0.814918
0.838799
0.860528
0.881478
0.902179
0.922859
0.943223
0.962271
0.97785
0.988017
0.992248
0.99152
0.989299
0.993806
1.02044
1.0902
1.21785
1.39783
1.60703
1.81898
2.01586
2.19103
2.34739
2.48202
2.61063
2.74683
2.89457
3.03575
3.06252
2.58244
1.47021
0.451458
0.488956
0.529398
0.571783
0.61486
0.657339
0.698122
0.736444
0.771907
0.80452
0.834688
0.86278
0.888643
0.912452
0.934111
0.952924
0.967718
0.977123
0.980294
0.97761
0.971346
0.967162
0.977059
1.02235
1.12866
1.30633
1.53704
1.7873
2.02418
2.22846
2.3952
2.52649
2.62009
2.69701
2.77109
2.84166
2.88286
2.79477
2.39098
1.35103
0.426144
0.458706
0.494321
0.53242
0.572149
0.612487
0.652412
0.691038
0.727706
0.762032
0.793866
0.822894
0.849704
0.873785
0.894411
0.910655
0.921564
0.926463
0.925414
0.919802
0.913275
0.913899
0.938274
1.01426
1.16875
1.40238
1.68099
1.96548
2.219
2.41712
2.55964
2.64982
2.69651
2.71974
2.72744
2.7134
2.6556
2.51647
2.22704
1.21121
0.400842
0.427735
0.457212
0.489035
0.522705
0.557509
0.592615
0.627173
0.660404
0.691598
0.720225
0.746822
0.770989
0.792075
0.809339
0.822046
0.829669
0.832168
0.830358
0.82646
0.825394
0.837901
0.885764
1.00228
1.20875
1.49606
1.81048
2.10955
2.36085
2.54535
2.65867
2.70387
2.70141
2.66759
2.61052
2.53236
2.43829
2.32481
2.08166
1.01491
0.377409
0.398723
0.42182
0.446624
0.472866
0.50008
0.527654
0.554881
0.5811
0.605897
0.629181
0.650518
0.669461
0.685517
0.698213
0.707217
0.712515
0.714624
0.714895
0.716183
0.72468
0.754089
0.830823
0.991236
1.24012
1.55131
1.8825
2.19041
2.4396
2.60823
2.6902
2.69702
2.64941
2.56772
2.47162
2.38178
2.31418
2.23899
1.97637
0.787344
0.357122
0.373707
0.391095
0.409283
0.428165
0.44752
0.467011
0.48624
0.504788
0.522289
0.53845
0.552958
0.565519
0.575892
0.583953
0.589788
0.593809
0.596903
0.600746
0.608708
0.628294
0.676114
0.780358
0.964111
1.2288
1.55031
1.8889
2.20072
2.44769
2.60472
2.66999
2.65433
2.57977
2.47589
2.37544
2.30473
2.26197
2.16875
1.79863
0.600227
0.339789
0.352929
0.366084
0.379242
0.392344
0.40528
0.417884
0.42995
0.441255
0.45159
0.460782
0.468698
0.475276
0.480556
0.484735
0.488214
0.491667
0.496164
0.503573
0.51764
0.547078
0.607381
0.721549
0.908577
1.17026
1.48687
1.82198
2.13211
2.37719
2.53893
2.60772
2.59125
2.51374
2.41074
2.31831
2.25379
2.18818
2.01489
1.54825
0.493409
0.324745
0.335553
0.34584
0.355554
0.364635
0.373012
0.380602
0.387316
0.393075
0.397826
0.401563
0.404348
0.406335
0.407799
0.409157
0.410994
0.414101
0.419613
0.4295
0.447458
0.480811
0.542756
0.651624
0.824154
1.06522
1.36103
1.68007
1.98106
2.23275
2.40957
2.49605
2.49668
2.43369
2.34064
2.248
2.1615
2.03955
1.78974
1.3154
0.435362
0.311228
0.320541
0.329023
0.336588
0.343159
0.348675
0.353089
0.356376
0.358548
0.35966
0.359833
0.359272
0.358276
0.357259
0.356755
0.357419
0.36007
0.365798
0.376252
0.394464
0.426101
0.48096
0.573212
0.718023
0.923788
1.18387
1.47393
1.76168
2.01889
2.21111
2.32066
2.34707
2.30618
2.22402
2.12306
2.0035
1.82954
1.54149
1.10704
0.383314
0.298626
0.306987
0.314384
0.320709
0.325865
0.329788
0.332446
0.333847
0.334046
0.33316
0.331377
0.328971
0.32631
0.323858
0.322179
0.321926
0.323829
0.328792
0.338114
0.353967
0.380194
0.423392
0.493743
0.604052
0.764998
0.97735
1.22611
1.49522
1.7457
1.9459
2.0754
2.12778
2.11068
2.04108
1.93448
1.79083
1.5869
1.29123
0.910574
0.33451
0.286521
0.29427
0.301024
0.306663
0.31109
0.314238
0.316077
0.316624
0.315951
0.314192
0.311558
0.308339
0.30491
0.301726
0.299311
0.29824
0.299138
0.302719
0.309916
0.322141
0.341749
0.372747
0.421664
0.49787
0.61172
0.769198
0.974372
1.20599
1.4343
1.62985
1.76999
1.84285
1.84822
1.79463
1.69185
1.54075
1.32763
1.05694
0.746836
0.277213
0.274672
0.281998
0.288361
0.29364
0.297735
0.30058
0.302145
0.302446
0.301552
0.299596
0.296777
0.293366
0.289705
0.286198
0.283301
0.281504
0.281319
0.283293
0.28807
0.296519
0.309981
0.330674
0.362308
0.410757
0.484058
0.594006
0.744113
0.924837
1.1158
1.29172
1.4296
1.51368
1.53742
1.50226
1.41257
1.26706
1.07609
0.84978
0.599607
0.217485
0.262973
0.269977
0.276084
0.281174
0.285151
0.287946
0.289528
0.289905
0.289138
0.287342
0.284688
0.281412
0.277805
0.274211
0.271009
0.268605
0.267412
0.267848
0.270362
0.275485
0.283954
0.296922
0.316316
0.345373
0.390558
0.459175
0.556672
0.682157
0.825242
0.967849
1.08967
1.17358
1.20888
1.19142
1.1193
0.999159
0.843696
0.66417
0.468987
0.162893
0.251372
0.258112
0.264035
0.269026
0.272991
0.275863
0.277602
0.278212
0.277734
0.276261
0.273935
0.270947
0.267537
0.263987
0.26061
0.257735
0.255696
0.25482
0.255429
0.257865
0.26254
0.270043
0.281325
0.298532
0.324605
0.363685
0.420348
0.497102
0.591096
0.692655
0.787282
0.859799
0.898072
0.89434
0.844275
0.755275
0.638273
0.503758
0.358625
0.120019
0.239795
0.246316
0.252104
0.257052
0.261067
0.264081
0.266048
0.266958
0.266839
0.265755
0.263816
0.261174
0.25802
0.254585
0.251123
0.247906
0.245208
0.243289
0.242397
0.242768
0.244651
0.248358
0.254572
0.2641
0.278254
0.299045
0.32908
0.370751
0.424474
0.486791
0.549877
0.603178
0.636202
0.640532
0.61053
0.550429
0.468422
0.373169
0.270831
0.0887453
0.22809
0.234435
0.240138
0.245096
0.249217
0.252429
0.254679
0.255941
0.256222
0.25556
0.254031
0.251748
0.248864
0.245569
0.242078
0.238621
0.235428
0.232719
0.230691
0.229523
0.229388
0.230569
0.233293
0.237897
0.244914
0.255176
0.269842
0.290219
0.317137
0.349904
0.385373
0.417915
0.440553
0.446585
0.430523
0.392638
0.338092
0.273579
0.204886
0.0668729
0.215961
0.222177
0.227853
0.232889
0.237193
0.240688
0.243308
0.245009
0.245768
0.245591
0.244512
0.242605
0.23999
0.236834
0.233334
0.229701
0.226138
0.222838
0.21997
0.217684
0.216163
0.21551
0.21583
0.217252
0.219966
0.224259
0.230546
0.239338
0.251068
0.265699
0.282196
0.298143
0.309875
0.313149
0.304055
0.280582
0.244771
0.201844
0.157274
0.0522809
0.202899
0.209018
0.214722
0.219919
0.224517
0.228431
0.231583
0.233903
0.235328
0.235809
0.235316
0.233862
0.231538
0.228513
0.224999
0.221214
0.217358
0.213609
0.210125
0.207062
0.204509
0.202534
0.201186
0.200508
0.200544
0.201363
0.203067
0.205787
0.209639
0.214595
0.22028
0.22573
0.229273
0.228644
0.221379
0.205606
0.181438
0.152272
0.123409
0.0426088
0.188075
0.194066
0.199812
0.205232
0.210245
0.214768
0.218712
0.221982
0.224466
0.226025
0.226495
0.225742
0.22381
0.220928
0.217384
0.213446
0.209334
0.205231
0.201297
0.197631
0.194306
0.191369
0.188843
0.186731
0.185027
0.183717
0.182792
0.182242
0.182045
0.182127
0.182282
0.18207
0.180713
0.177057
0.169669
0.15721
0.139383
0.118555
0.0991134
0.0360391
0.17023
0.175885
0.181523
0.187096
0.192555
0.197844
0.202896
0.207621
0.211882
0.215434
0.217836
0.218459
0.217205
0.214537
0.210961
0.206864
0.20252
0.198127
0.193811
0.189664
0.185745
0.182087
0.1787
0.175572
0.172676
0.169976
0.167425
0.164974
0.162563
0.160105
0.157454
0.154359
0.150401
0.144941
0.137129
0.126087
0.111565
0.0953447
0.0809841
0.031442
0.147616
0.152311
0.157246
0.162449
0.167953
0.1738
0.180029
0.186668
0.19371
0.201026
0.207832
0.211924
0.212089
0.209825
0.20625
0.202012
0.197465
0.192814
0.188184
0.183657
0.179282
0.175083
0.171061
0.167199
0.163465
0.159817
0.156202
0.152563
0.148834
0.144933
0.140748
0.136112
0.130761
0.124301
0.116191
0.105853
0.0931336
0.0794156
0.0675886
0.0280612
0.118405
0.120687
0.12327
0.126256
0.129796
0.134109
0.139512
0.146492
0.155831
0.169248
0.186189
0.204553
0.208032
0.206652
0.20331
0.199091
0.194477
0.189709
0.18492
0.180185
0.175547
0.171022
0.166607
0.162281
0.158011
0.153751
0.149446
0.145035
0.140449
0.13561
0.130417
0.124735
0.118375
0.111066
0.102458
0.0921985
0.0802726
0.0678039
0.0569212
0.0251556
)
;

boundaryField
{
    leftWall
    {
        type            kqRWallFunction;
        value           nonuniform 0();
    }
    rightWall
    {
        type            kqRWallFunction;
        value           nonuniform List<scalar> 
43
(
0.870108
0.920259
0.968369
1.00068
1.01024
1.0033
1.01597
1.10786
1.10362
1.12694
1.20034
1.32785
1.45836
1.57006
1.66525
1.74465
1.80365
1.831
1.80286
1.70997
1.5917
1.47021
1.35103
1.21121
1.01491
0.787344
0.600227
0.493409
0.435362
0.383314
0.33451
0.277213
0.217485
0.162893
0.120019
0.0887453
0.0668729
0.0522809
0.0426088
0.0360391
0.031442
0.0280612
0.0251556
)
;
    }
    lowerWall
    {
        type            kqRWallFunction;
        value           nonuniform 0();
    }
    atmosphere
    {
        type            inletOutlet;
        inletValue      uniform 0.1;
        value           nonuniform List<scalar> 
45
(
0.1
0.1
0.1
0.1
0.1
0.1
0.1
0.1
0.1
0.1
0.1
0.1
0.1
0.1
0.1
0.1
0.204553
0.208032
0.206652
0.20331
0.199091
0.194477
0.189709
0.18492
0.180185
0.175547
0.171022
0.166607
0.162281
0.158011
0.153751
0.149446
0.145035
0.140449
0.13561
0.130417
0.124735
0.118375
0.111066
0.102458
0.0921985
0.0802726
0.0678039
0.0569212
0.0251556
)
;
    }
    defaultFaces
    {
        type            empty;
    }
    procBoundary3to1
    {
        type            processor;
        value           nonuniform List<scalar> 
45
(
0.319495
0.323911
0.327841
0.331478
0.33491
0.338433
0.342151
0.346045
0.350274
0.354994
0.36035
0.366402
0.373157
0.380514
0.388245
0.396003
0.403352
0.409836
0.415058
0.418781
0.420998
0.421992
0.422338
0.422834
0.424336
0.427599
0.433208
0.441569
0.452868
0.467142
0.484769
0.505764
0.532356
0.571308
0.63468
0.748664
0.898575
1.05156
1.24217
1.45347
1.64527
1.77235
1.77949
1.57656
0.822533
)
;
    }
    procBoundary3to2
    {
        type            processor;
        value           nonuniform List<scalar> 
43
(
0.309209
0.304311
0.300079
0.296785
0.294653
0.293844
0.294412
0.296327
0.299461
0.303593
0.308426
0.313602
0.318728
0.323402
0.327245
0.329924
0.331166
0.330732
0.328574
0.324792
0.319612
0.313346
0.306352
0.298919
0.291231
0.28337
0.275365
0.267191
0.258813
0.250227
0.241461
0.232565
0.223587
0.214554
0.205454
0.196223
0.186725
0.176752
0.166014
0.154156
0.140816
0.125754
0.10912
)
;
    }
}


// ************************************************************************* //
