/*--------------------------------*- C++ -*----------------------------------*\
| =========                 |                                                 |
| \\      /  F ield         | OpenFOAM: The Open Source CFD Toolbox           |
|  \\    /   O peration     | Version:  5.0                                   |
|   \\  /    A nd           | Web:      www.OpenFOAM.org                      |
|    \\/     M anipulation  |                                                 |
\*---------------------------------------------------------------------------*/
FoamFile
{
    version     2.0;
    format      ascii;
    class       volScalarField;
    location    "0.55";
    object      p_rgh;
}
// * * * * * * * * * * * * * * * * * * * * * * * * * * * * * * * * * * * * * //

dimensions      [1 -1 -2 0 0 0 0];

internalField   nonuniform List<scalar> 
1935
(
1.47345
1.43228
1.38856
1.34255
1.29456
1.24487
1.19375
1.14147
1.0883
1.03448
0.980238
0.925786
0.871361
0.817201
0.763514
0.710458
0.658169
0.606822
0.556637
0.507871
0.460795
0.415688
0.372822
0.332453
0.294802
0.260029
0.228224
0.199415
0.173576
0.150632
0.130443
0.112797
0.0974108
0.0839482
0.0720549
0.0613926
0.0516541
0.0425594
0.0338589
0.0253334
0.0167841
0.00807442
-0.000342036
1.51719
1.56366
1.61436
1.66959
1.4735
1.51734
1.5652
1.61739
1.42706
1.46804
1.51279
1.56161
1.37815
1.41606
1.45745
1.50256
1.32711
1.36176
1.39952
1.44057
1.27425
1.30548
1.33938
1.37604
1.21987
1.24754
1.27737
1.3093
1.16427
1.18827
1.21383
1.24071
1.10773
1.12795
1.14905
1.17058
1.0505
1.06684
1.0833
1.09919
0.992802
1.00518
1.01685
1.02685
0.934896
0.943273
0.950066
0.95404
0.877077
0.88152
0.883543
0.881636
0.819666
0.820383
0.817974
0.810727
0.762927
0.760219
0.753865
0.742111
0.707029
0.70121
0.691387
0.675817
0.65212
0.643504
0.63067
0.611925
0.598381
0.587281
0.571875
0.550552
0.546045
0.532788
0.515266
0.492004
0.495378
0.480292
0.461093
0.436496
0.446657
0.430057
0.409569
0.384119
0.400169
0.382348
0.360895
0.334946
0.356186
0.337423
0.315285
0.28909
0.314959
0.295519
0.272947
0.246709
0.276701
0.256836
0.23407
0.20798
0.241555
0.221503
0.198782
0.173051
0.209584
0.189555
0.167113
0.141974
0.180781
0.160944
0.138984
0.11467
0.155099
0.135588
0.114263
0.0909626
0.132472
0.113414
0.0928437
0.0706742
0.112806
0.0943646
0.0746704
0.0537107
0.0959427
0.0783447
0.0596877
0.0400253
0.0816313
0.0651519
0.0477457
0.0295126
0.0695201
0.0544389
0.0385257
0.0218992
0.0591982
0.04575
0.0315529
0.0167211
0.0502398
0.0385784
0.0262578
0.0133782
0.0422495
0.0324361
0.0220689
0.0112309
0.0348752
0.026887
0.0184635
0.00967441
0.0278117
0.0215596
0.0149948
0.00818009
0.0208109
0.0161644
0.0113154
0.00632252
0.0136456
0.0104333
0.00709267
0.00367207
0.00612919
0.00412507
0.00202289
-0.000134842
-0.000744084
-0.00115384
-0.00156125
-0.00192856
1.73295
1.80609
1.8867
1.97537
2.0726
2.17888
2.29475
2.42075
2.5574
2.70522
2.86467
3.03608
3.21953
3.41469
3.62067
3.83584
4.0574
4.28066
4.49957
4.71056
4.91614
5.12398
5.34377
5.58218
5.83314
6.07648
6.30489
6.50848
6.67036
6.9618
8.04128
14.1853
1217.67
2488.62
2603.22
2653.23
2701.14
2759.81
2879.63
2017.72
1.67735
1.74667
1.82315
1.90742
2.00002
2.10155
2.21268
2.33414
2.46669
2.61115
2.76838
2.93919
3.12419
3.32357
3.53691
3.76297
3.99849
4.23603
4.46372
4.67288
4.8669
5.05959
5.27056
5.51748
5.78908
6.0285
6.24861
6.4995
6.84254
8.40771
27.9167
1008.66
2431.29
2602.84
2648.38
2686.61
2723.4
2768.83
2887.99
1992.79
1.61773
1.68261
1.75418
1.83307
1.91983
2.01514
2.11981
2.23477
2.36108
2.4999
2.65263
2.82082
3.00596
3.20936
3.43101
3.67138
3.9274
4.18831
4.43086
4.63479
4.80528
4.96734
5.1577
5.40869
5.70489
5.98319
6.34863
7.56586
12.7677
354.987
1415.12
2548.85
2609.54
2650.39
2683.93
2712.99
2732.29
2747.11
2835.43
2193.87
1.55435
1.6141
1.67987
1.7522
1.83164
1.9189
2.01493
2.12083
2.23801
2.36801
2.51295
2.6755
2.85894
3.0651
3.29575
3.55264
3.83844
4.13989
4.41166
4.60619
4.73657
4.8558
4.97403
5.20782
5.69766
7.36813
22.936
291.599
1064.76
2255.18
2584.48
2626.02
2663.35
2699.22
2728.92
2746.72
2741.33
2692.31
2708.34
2770.19
1.48754
1.54142
1.60036
1.66487
1.73538
1.81227
1.89678
1.99041
2.09481
2.2119
2.34579
2.49925
2.67658
2.88137
3.11865
3.39475
3.72439
4.1013
4.42895
4.60516
4.66013
4.68031
4.79703
6.06008
35.6778
417.775
1262.4
2240.61
2588.76
2614.9
2646.82
2686.36
2718.1
2741.57
2636.13
2379.04
1842.15
1216.16
1838.18
2694.85
1.41765
1.46487
1.51593
1.57118
1.63047
1.6944
1.76412
1.84171
1.92923
2.02862
2.14605
2.2837
2.44888
2.65119
2.89177
3.18498
3.58074
4.10617
4.51453
4.67097
4.61494
4.56365
6.0792
408.232
1400.77
2423.02
2619.21
2632.74
2656.28
2684.82
2705.71
2605.49
2203.3
1620.06
847.903
196.014
108.848
12.1856
201.857
2397.23
1.34505
1.38481
1.42689
1.47109
1.51699
1.56493
1.61665
1.67602
1.74259
1.81945
1.90809
2.0241
2.17788
2.37406
2.61095
2.90713
3.37931
4.12762
4.83909
4.94351
4.7029
4.7426
848.789
2365.42
2662.87
2670.95
2687.71
2708.2
2714.74
2448.91
1686.81
854.529
112.16
-0.768388
-0.657289
-0.260481
-1.01568
-1.79197
-3.27803
1047.4
1.27008
1.30161
1.33359
1.36519
1.39562
1.42531
1.45859
1.61596
1.65852
1.57998
1.63403
1.72678
1.86866
2.06061
2.28048
2.51012
2.7597
3.79282
6.4777
5.69215
5.05629
629.254
2528.97
2696.21
2719.32
2746.97
2757.49
2432.68
1483.12
396.834
-2.21043
-2.13589
-2.00425
-2.09691
-2.00888
-1.87962
-1.86223
-1.41387
-2.23406
10.1867
1.19309
1.21569
1.23645
1.25422
1.26786
1.28187
1.57219
1.68563
1.66239
1.29696
1.32449
1.39782
1.54447
1.76382
2.00498
2.22637
3.82306
188.052
248.217
59.7958
9.98579
1516.15
2586.67
2698.81
2657.72
2441.81
1584.64
325.796
-3.12104
-3.19052
-2.96341
-2.69514
-2.39536
-1.98547
-1.68542
-1.5153
-1.41324
-1.19321
-1.07897
0.376558
1.11441
1.12747
1.13619
1.13924
1.13506
1.3428
1.51297
1.46712
1.3256
0.978261
0.975903
1.03583
1.21076
1.52128
1.84212
2.80143
520.96
1760.93
1999.92
1386.62
584.062
648.499
932.27
887.605
703.426
265.162
-3.64601
-3.9251
-3.68353
-3.38002
-3.00804
-2.65483
-2.31206
-1.95678
-1.65866
-1.42011
-1.22658
-0.95177
0.299113
-0.291284
1.03438
1.03719
1.03313
1.01924
1.00276
1.21401
1.31287
1.22397
0.750158
0.631505
0.588171
0.620826
0.833771
1.39741
1.61862
493.578
2165.71
2374.97
2370.19
2367.07
869.866
-16.8055
-6.31963
-4.03377
-3.61961
-4.23899
-4.12181
-3.9226
-3.68338
-3.39226
-3.07015
-2.74304
-2.41401
-2.08657
-1.78202
-1.50215
-1.23722
-0.876313
0.669041
-0.310293
0.953613
0.945653
0.927266
0.894401
0.887761
0.837654
0.844016
0.664213
0.403536
0.266492
0.156928
0.120449
0.260139
0.979798
196.228
2083.32
2427.64
2428.41
2425.74
2399.12
484.836
-4.634
-4.94003
-4.4741
-4.22264
-4.17483
-4.11947
-3.96134
-3.76914
-3.53843
-3.27344
-2.98524
-2.67948
-2.36161
-2.04306
-1.72917
-1.4195
-1.10624
0.558007
-0.393882
0.873459
0.855198
0.822807
0.767403
0.837868
1.09102
0.56581
0.33116
0.118443
-0.0920769
-0.264788
-0.261826
0.110197
-1.37853
1583.51
2482.63
2482.14
2483.27
2484.62
1371.48
30.1277
-4.72858
-4.83201
-4.62417
-4.41164
-4.30164
-4.23542
-4.13166
-3.99405
-3.82365
-3.6189
-3.38194
-3.11428
-2.81718
-2.4962
-2.15904
-1.81161
-1.49482
0.156324
-0.577292
0.79564
0.768686
0.72586
0.659958
0.701914
2.12189
1.77911
0.0822507
-0.173431
-0.450684
-0.713254
-0.773291
-0.0882411
61.075
2226.51
2536.8
2541.2
2544.6
2360.2
385.77
-3.95594
-4.79283
-4.8191
-4.67599
-4.5427
-4.47802
-4.44469
-4.40205
-4.33688
-4.2429
-4.11363
-3.94465
-3.73236
-3.47287
-3.16611
-2.8208
-2.4459
-2.06138
-1.19652
-0.41368
0.72162
0.687336
0.637377
0.56425
0.517781
2.03083
1.80199
-0.125309
-0.457334
-0.796492
-1.17205
-1.54644
-2.3786
135.173
2161.85
2588.11
2602.8
2570.78
744.872
-3.68702
-4.74531
-4.83346
-4.81291
-4.74848
-4.70348
-4.70514
-4.73587
-4.7718
-4.79628
-4.7959
-4.7581
-4.67232
-4.52958
-4.32173
-4.04534
-3.70832
-3.32234
-2.88706
-2.35208
-1.28541
0.650934
0.611332
0.554637
0.477817
0.379179
1.606
1.65131
-0.0754305
-0.666351
-1.03355
-1.49531
-2.0431
-2.86575
6.73627
880.564
2417.71
2330.61
819.654
-4.48407
-4.83196
-4.82534
-4.83415
-4.84502
-4.85859
-4.89993
-4.98235
-5.09777
-5.22937
-5.35898
-5.46753
-5.53573
-5.54623
-5.48468
-5.34037
-5.10821
-4.79467
-4.41211
-3.95506
-3.35609
-2.53196
0.583587
0.540309
0.479134
0.398225
0.293238
0.183896
0.801258
1.10823
0.48446
-0.42581
-1.64914
-2.18427
-2.69122
-2.95737
42.4201
444.209
200.584
-5.00314
-4.90808
-4.81822
-4.80717
-4.83808
-4.89683
-4.98485
-5.11344
-5.28827
-5.50378
-5.74601
-5.99509
-6.22657
-6.41389
-6.53235
-6.5624
-6.49155
-6.31489
-6.03855
-5.67581
-5.22648
-4.623
-3.76822
0.519602
0.473861
0.410147
0.323834
0.209303
0.0422386
-0.19813
0.23536
2.83159
2.70082
2.17631
0.731979
-1.82094
-2.80368
-2.70197
-3.25171
-5.24965
-5.06546
-4.81762
-4.72875
-4.74222
-4.81131
-4.92645
-5.09075
-5.30953
-5.58509
-5.91291
-6.27947
-6.66165
-7.02869
-7.34632
-7.58218
-7.712
-7.72163
-7.6071
-7.37587
-7.04395
-6.62224
-6.07414
-5.25037
0.459397
0.41269
0.349021
0.262876
0.148511
-0.00439116
-0.202305
-0.441762
0.113035
3.05911
2.61641
2.11502
1.58951
0.868256
-2.73555
-3.68755
-4.0304
-4.35101
-4.42319
-4.47195
-4.56502
-4.70277
-4.88995
-5.13538
-5.4468
-5.82876
-6.27829
-6.78012
-7.30585
-7.8174
-8.2725
-8.63113
-8.86502
-8.95775
-8.90578
-8.71817
-8.41284
-8.00015
-7.48413
-6.70895
0.403134
0.356842
0.295419
0.214069
0.107231
-0.0302674
-0.20288
-0.409116
-0.661266
-0.809223
1.32805
2.58556
2.11384
1.63533
-0.388197
-3.31507
-3.61759
-3.8703
-4.02046
-4.14839
-4.30729
-4.51036
-4.76699
-5.08945
-5.49049
-5.9793
-6.55369
-7.1943
-7.8659
-8.52288
-9.11508
-9.59488
-9.93185
-10.1057
-10.1126
-9.96327
-9.67767
-9.2403
-8.58818
-8.04233
0.350658
0.3057
0.24774
0.172975
0.0770008
-0.0441859
-0.192466
-0.372848
-0.585556
-0.837745
-1.09461
-0.772738
-0.351857
-0.920042
-1.97886
-2.78713
-3.0899
-3.33994
-3.54675
-3.74559
-3.96758
-4.22955
-4.5459
-4.93458
-5.41588
-6.0041
-6.6957
-7.46535
-8.27116
-9.06106
-9.77797
-10.3676
-10.7963
-11.0429
-11.1006
-10.9833
-10.7251
-10.3264
-9.08639
-1.70295
0.301785
0.25861
0.204577
0.136795
0.0520399
-0.0528491
-0.179831
-0.332265
-0.510115
-0.714203
-0.942218
-1.1916
-1.44798
-1.71652
-2.0013
-2.30068
-2.58341
-2.83671
-3.07389
-3.31474
-3.57756
-3.87773
-4.2331
-4.66856
-5.21229
-5.88088
-6.66591
-7.53567
-8.44383
-9.33444
-10.1445
-10.8162
-11.3124
-11.6074
-11.6869
-11.5619
-11.2802
-10.8996
-6.98579
93.2923
0.256437
0.215138
0.164937
0.103708
0.0291612
-0.0609599
-0.168547
-0.294981
-0.44118
-0.607067
-0.790329
-0.988341
-1.20002
-1.4266
-1.66654
-1.91248
-2.1558
-2.39516
-2.63686
-2.89032
-3.16618
-3.47763
-3.84593
-4.30347
-4.88352
-5.59914
-6.43428
-7.35271
-8.30732
-9.2407
-10.0839
-10.792
-11.3172
-11.6108
-11.6499
-11.4191
-10.9421
-10.0598
0.107775
74.97
0.214672
0.175158
0.128394
0.0728531
0.00693634
-0.0708986
-0.161929
-0.267159
-0.387286
-0.522393
-0.671498
-0.833229
-1.00694
-1.19242
-1.38833
-1.59261
-1.80377
-2.02226
-2.25076
-2.49359
-2.75714
-3.05404
-3.41017
-3.86368
-4.4463
-5.16188
-5.98683
-6.88491
-7.81165
-8.70827
-9.52249
-10.1966
-10.6679
-10.8722
-10.764
-10.2841
-9.31151
-6.08062
8.40683
3.38095
0.176647
0.138791
0.0950101
0.0442422
-0.0146225
-0.0826467
-0.16068
-0.249352
-0.349121
-0.460145
-0.582136
-0.714488
-0.856808
-1.00899
-1.17101
-1.34283
-1.52453
-1.71655
-1.91971
-2.13538
-2.3679
-2.63133
-2.956
-3.38012
-3.92634
-4.58973
-5.3396
-6.14411
-6.96025
-7.735
-8.42573
-8.97608
-9.30113
-9.33309
-9.00562
-8.2003
-5.76859
-0.199697
3.98132
1.70477
0.142547
0.106272
0.0651032
0.0183281
-0.0348025
-0.0950354
-0.162964
-0.238988
-0.323381
-0.416295
-0.517671
-0.627356
-0.745291
-0.871648
-1.0068
-1.15111
-1.3048
-1.46771
-1.63914
-1.81873
-2.01056
-2.23107
-2.51161
-2.88345
-3.357
-3.91859
-4.54032
-5.19067
-5.83317
-6.42081
-6.91431
-7.2658
-7.40532
-7.26576
-6.73438
-4.8999
-2.4477
0.0186195
0.0743469
0.263048
0.112484
0.0778298
0.0390567
-0.00428988
-0.0526833
-0.106639
-0.166589
-0.232809
-0.30546
-0.384634
-0.470371
-0.562692
-0.66169
-0.767587
-0.880684
-1.00118
-1.12887
-1.26274
-1.40098
-1.54264
-1.69252
-1.86812
-2.0962
-2.39724
-2.77217
-3.20496
-3.6706
-4.14022
-4.5816
-4.96038
-5.24741
-5.40027
-5.38808
-5.04243
-4.0747
-3.0493
-2.28181
-1.67698
-0.913519
-0.893356
0.0864254
0.0535383
0.0171212
-0.0231075
-0.0674146
-0.116127
-0.169546
-0.227872
-0.29121
-0.359608
-0.433097
-0.511715
-0.595536
-0.684667
-0.779172
-0.878871
-0.982994
-1.08988
-1.19722
-1.30433
-1.41618
-1.54892
-1.72054
-1.94192
-2.21068
-2.51268
-2.82643
-3.12739
-3.39015
-3.59358
-3.71921
-3.75496
-3.59166
-3.28005
-2.95227
-2.83974
-2.62987
-2.14088
-1.80569
-1.74388
0.0641713
0.0332429
-0.000726996
-0.0379263
-0.0784901
-0.122599
-0.17044
-0.222141
-0.277762
-0.337307
-0.400755
-0.468078
-0.539243
-0.614176
-0.69267
-0.774179
-0.857523
-0.940733
-1.02165
-1.10003
-1.18058
-1.27349
-1.38982
-1.53554
-1.70821
-1.89722
-2.08624
-2.25676
-2.39195
-2.48268
-2.52939
-2.5164
-2.4489
-2.50625
-2.62923
-2.65778
-2.60207
-2.44954
-2.3009
-2.21082
0.0454744
0.0166508
-0.014764
-0.0489208
-0.0858877
-0.125751
-0.168598
-0.214489
-0.263431
-0.315376
-0.370241
-0.427906
-0.488205
-0.550887
-0.615521
-0.68132
-0.746964
-0.810612
-0.870531
-0.926381
-0.980715
-1.03926
-1.10839
-1.19175
-1.28816
-1.39136
-1.49121
-1.57579
-1.6381
-1.68008
-1.71068
-1.75264
-1.85799
-2.02726
-2.22579
-2.40155
-2.48864
-2.46768
-2.39489
-2.29986
0.0301664
0.00350463
-0.0253118
-0.0564229
-0.0898713
-0.125693
-0.163912
-0.204524
-0.247482
-0.29269
-0.340002
-0.389216
-0.440056
-0.492141
-0.544905
-0.597484
-0.648644
-0.696815
-0.740445
-0.778754
-0.812566
-0.844579
-0.878275
-0.91616
-0.958547
-1.00307
-1.04644
-1.08276
-1.11259
-1.14365
-1.1924
-1.28379
-1.43575
-1.64917
-1.89257
-2.10692
-2.23415
-2.25713
-2.20381
-2.12847
0.0181718
-0.00632409
-0.0325682
-0.0606885
-0.0907195
-0.122671
-0.15653
-0.192249
-0.22974
-0.268865
-0.309433
-0.351186
-0.393783
-0.436779
-0.479565
-0.521309
-0.560916
-0.597051
-0.628325
-0.653682
-0.672889
-0.686835
-0.697248
-0.706011
-0.714767
-0.724777
-0.73475
-0.747009
-0.765242
-0.79863
-0.861811
-0.970837
-1.13519
-1.34729
-1.57602
-1.77317
-1.89525
-1.92899
-1.88976
-1.82914
0.00940813
-0.0129221
-0.0366435
-0.061862
-0.0886023
-0.116861
-0.146607
-0.177769
-0.210236
-0.243845
-0.278381
-0.313561
-0.349022
-0.384308
-0.418832
-0.451846
-0.48242
-0.509441
-0.531715
-0.548152
-0.558053
-0.56137
-0.558803
-0.551803
-0.54258
-0.533582
-0.527911
-0.529533
-0.54391
-0.579298
-0.646171
-0.753894
-0.904931
-1.08847
-1.27805
-1.43937
-1.54014
-1.57323
-1.54587
-1.49917
0.00365682
-0.0164637
-0.037684
-0.0600795
-0.083658
-0.108404
-0.134277
-0.161198
-0.18905
-0.217668
-0.246834
-0.276267
-0.305617
-0.334452
-0.362241
-0.388345
-0.412003
-0.432324
-0.448347
-0.459118
-0.46386
-0.462165
-0.454251
-0.441307
-0.425232
-0.4093
-0.397616
-0.395033
-0.407199
-0.440679
-0.502227
-0.596426
-0.721995
-0.868392
-1.01579
-1.13821
-1.21661
-1.24568
-1.22846
-1.1954
0.000486138
-0.0173315
-0.0360205
-0.055625
-0.0761321
-0.0975136
-0.119725
-0.14269
-0.166301
-0.190413
-0.214827
-0.239286
-0.263466
-0.286978
-0.309364
-0.330098
-0.348575
-0.36412
-0.376005
-0.383496
-0.385941
-0.382915
-0.374612
-0.361537
-0.34559
-0.329647
-0.317652
-0.314281
-0.324524
-0.353298
-0.404733
-0.480671
-0.5785
-0.689439
-0.799003
-0.889747
-0.949133
-0.973714
-0.964802
-0.943584
-0.000707242
-0.0161119
-0.0322028
-0.048998
-0.0664678
-0.0845757
-0.103277
-0.122509
-0.142188
-0.16221
-0.182425
-0.20261
-0.222471
-0.241658
-0.25978
-0.276414
-0.291094
-0.303324
-0.312591
-0.318392
-0.320292
-0.31804
-0.311506
-0.301354
-0.288867
-0.276317
-0.266939
-0.264607
-0.273338
-0.296712
-0.33722
-0.395376
-0.468541
-0.550075
-0.629868
-0.696348
-0.740986
-0.761416
-0.758171
-0.744708
-0.000608282
-0.0135106
-0.0269336
-0.040877
-0.0553001
-0.0701626
-0.0854236
-0.101041
-0.116978
-0.13321
-0.149678
-0.166206
-0.182505
-0.198239
-0.213064
-0.22663
-0.238582
-0.248564
-0.256235
-0.261282
-0.263452
-0.262595
-0.258763
-0.25236
-0.244314
-0.236247
-0.230509
-0.229977
-0.237652
-0.256113
-0.286934
-0.330109
-0.383484
-0.442334
-0.499985
-0.548387
-0.581862
-0.598587
-0.598712
-0.59025
0.000103776
-0.0102664
-0.0209882
-0.0320455
-0.043388
-0.0549708
-0.0667558
-0.0787236
-0.0909121
-0.103454
-0.116494
-0.129915
-0.143348
-0.156408
-0.168756
-0.180091
-0.190135
-0.198634
-0.20537
-0.210165
-0.212898
-0.213541
-0.2122
-0.209201
-0.205204
-0.201291
-0.199013
-0.200308
-0.207238
-0.22159
-0.244426
-0.275655
-0.313727
-0.355494
-0.396441
-0.431476
-0.456429
-0.470012
-0.472011
-0.466931
0.000814591
-0.00707908
-0.0151363
-0.0233156
-0.0315441
-0.0397558
-0.0478988
-0.055963
-0.0640869
-0.072721
-0.082499
-0.0933597
-0.104636
-0.115774
-0.126383
-0.136183
-0.144954
-0.152514
-0.158726
-0.163506
-0.16682
-0.168707
-0.169307
-0.168904
-0.16796
-0.167183
-0.167537
-0.170211
-0.17649
-0.187512
-0.203972
-0.225817
-0.252061
-0.280726
-0.308995
-0.333634
-0.351944
-0.362976
-0.365901
-0.363356
0.000998203
-0.00459539
-0.0101521
-0.0155812
-0.0207558
-0.0255485
-0.0298398
-0.0335501
-0.0368517
-0.0407349
-0.0471957
-0.0562131
-0.066148
-0.0761352
-0.0856885
-0.094532
-0.102497
-0.109475
-0.115396
-0.120233
-0.124008
-0.126795
-0.128737
-0.130061
-0.131101
-0.132305
-0.134249
-0.137616
-0.143123
-0.151408
-0.162867
-0.177467
-0.194629
-0.213208
-0.231594
-0.248001
-0.260906
-0.269439
-0.272566
-0.271882
6.57169e-05
-0.00362929
-0.00714732
-0.0103419
-0.0130051
-0.0148813
-0.0156259
-0.0146496
-0.0111056
-0.00611694
-0.00801354
-0.0178305
-0.0284652
-0.0380312
-0.0467674
-0.0549628
-0.0623962
-0.0689649
-0.074667
-0.0795271
-0.0835967
-0.0869572
-0.0897377
-0.0920981
-0.0942609
-0.0965013
-0.0991428
-0.102544
-0.107069
-0.113022
-0.120587
-0.129721
-0.140102
-0.151132
-0.162
-0.171881
-0.180135
-0.186147
-0.188656
-0.18883
-0.00238414
-0.00471076
-0.00689545
-0.00875341
-0.00999218
-0.0101264
-0.0081975
-0.00163974
0.015905
0.0476465
0.0555685
0.0320504
0.0117495
0.000722947
-0.00645722
-0.0140333
-0.0213364
-0.027951
-0.0338479
-0.0390789
-0.0437094
-0.0478088
-0.0514585
-0.054749
-0.0577787
-0.0606665
-0.0635493
-0.0665683
-0.0698713
-0.0735712
-0.0777326
-0.0823349
-0.0872416
-0.0922113
-0.0969479
-0.101233
-0.105017
-0.108055
-0.109439
-0.110243
-0.00219925
-0.00222457
-0.00176491
-0.000439995
0.00239704
0.0078456
0.0179403
0.0375531
0.0788515
0.150179
0.15724
0.112197
0.0826609
0.0623184
0.0457536
0.0333407
0.0235889
0.0154958
0.00849503
0.00222992
-0.00352487
-0.00891164
-0.0140029
-0.0188317
-0.0234007
-0.0276825
-0.0316397
-0.0352282
-0.0384151
-0.0411762
-0.0435034
-0.0454032
-0.0468776
-0.0479097
-0.0484557
-0.0484592
-0.0478239
-0.0462162
-0.043458
-0.0419517
)
;

boundaryField
{
    leftWall
    {
        type            fixedFluxPressure;
        gradient        nonuniform 0();
        value           nonuniform 0();
    }
    rightWall
    {
        type            fixedFluxPressure;
        gradient        uniform 0;
        value           nonuniform List<scalar> 
43
(
2017.72
1992.79
2193.87
2770.19
2694.85
2397.23
1047.4
10.1867
0.376558
-0.291284
-0.310293
-0.393882
-0.577292
-0.41368
-1.28541
-2.53196
-3.76822
-5.25037
-6.70895
-8.04233
-1.70295
93.2923
74.97
3.38095
1.70477
0.263048
-0.893356
-1.74388
-2.21082
-2.29986
-2.12847
-1.82914
-1.49917
-1.1954
-0.943584
-0.744708
-0.59025
-0.466931
-0.363356
-0.271882
-0.18883
-0.110243
-0.0419517
)
;
    }
    lowerWall
    {
        type            fixedFluxPressure;
        gradient        nonuniform 0();
        value           nonuniform 0();
    }
    atmosphere
    {
        type            totalPressure;
        rho             rho;
        psi             none;
        gamma           1;
        p0              uniform 0;
        value           nonuniform List<scalar> 
45
(
-0.00495872
-0.0044648
-0.00398882
-0.00351939
-0.00306063
-0.00259221
-0.00212117
-0.00168026
-0.00127483
-0.000911752
-0.000601953
-0.000359786
-0.000197165
-0.000123857
-0.000258628
-0.000102285
0
0
0
0
0
0
0
0
0
0
0
0
0
0
0
0
0
0
0
0
0
0
0
0
0
0
0
0
0
)
;
    }
    defaultFaces
    {
        type            empty;
    }
    procBoundary3to1
    {
        type            processor;
        value           nonuniform List<scalar> 
45
(
1.51182
1.55788
1.60676
1.66003
1.71799
1.78435
1.86078
1.94483
2.03708
2.13794
2.24781
2.36711
2.49619
2.6354
2.78501
2.9452
3.116
3.29717
3.48811
3.68778
3.89464
4.10644
4.32022
4.5329
4.74306
4.95248
5.16549
5.38699
5.61894
5.85645
6.08961
6.31222
6.52228
6.72275
6.93222
7.10291
7.92704
179.861
1868.24
2527.38
2600.43
2657.29
2721.62
2833
1905.54
)
;
    }
    procBoundary3to2
    {
        type            processor;
        value           nonuniform List<scalar> 
43
(
1.43238
1.39364
1.35253
1.30928
1.26417
1.21744
1.16935
1.12012
1.07003
1.01928
0.968101
0.916685
0.86524
0.813957
0.763004
0.712523
0.662661
0.613589
0.565506
0.518641
0.473251
0.429605
0.387971
0.348595
0.311691
0.27742
0.24589
0.217152
0.191193
0.167924
0.147175
0.128706
0.112237
0.0974651
0.0840973
0.0718645
0.0605236
0.0498484
0.0396312
0.0296784
0.0198139
0.00993505
3.83562e-05
)
;
    }
}


// ************************************************************************* //
